phonopy:
  version: "2.45.1"
  frequency_unit_conversion_factor: 15.633302
  symmetry_tolerance: 1.00000e-05

space_group:
  type: "P6_3/mmc"
  number: 194
  Hall_symbol: "-P 6c 2c"

primitive_matrix:
- [  1.000000000000000, -0.000000000000000,  0.000000000000000 ]
- [  0.000000000000000,  1.000000000000000,  0.000000000000000 ]
- [  0.000000000000000,  0.000000000000000,  1.000000000000000 ]

supercell_matrix:
- [   3,   0,   0 ]
- [   0,   3,   0 ]
- [   0,   0,   2 ]

primitive_cell:
  lattice:
  - [     3.676433881091077,     0.000000000000000,     0.000000000000000 ] # a
  - [    -1.838216442217792,     3.183884742935585,     0.000000000000000 ] # b
  - [     0.000000000000000,     0.000000000000000,     6.248226639369289 ] # c
  points:
  - symbol: Na # 1
    coordinates: [  0.333333000000000,  0.666667000000000,  0.250000000000000 ]
    mass: 22.989769
  - symbol: Na # 2
    coordinates: [  0.666667000000000,  0.333333000000000,  0.750000000000000 ]
    mass: 22.989769
  reciprocal_lattice: # without 2pi
  - [     0.272002715768473,     0.157040818001626,     0.000000000000000 ] # a*
  - [     0.000000000000000,     0.314081721148607,     0.000000000000000 ] # b*
  - [     0.000000000000000,     0.000000000000000,     0.160045410916935 ] # c*

unit_cell:
  lattice:
  - [     3.676433881091077,     0.000000000000000,     0.000000000000000 ] # a
  - [    -1.838216442217792,     3.183884742935585,     0.000000000000000 ] # b
  - [     0.000000000000000,     0.000000000000000,     6.248226639369289 ] # c
  points:
  - symbol: Na # 1
    coordinates: [  0.333333000000000,  0.666667000000000,  0.250000000000000 ]
    mass: 22.989769
    reduced_to: 1
  - symbol: Na # 2
    coordinates: [  0.666667000000000,  0.333333000000000,  0.750000000000000 ]
    mass: 22.989769
    reduced_to: 2

supercell:
  lattice:
  - [    11.029301643273230,     0.000000000000000,     0.000000000000000 ] # a
  - [    -5.514649326653376,     9.551654228806754,     0.000000000000000 ] # b
  - [     0.000000000000000,     0.000000000000000,    12.496453278738578 ] # c
  points:
  - symbol: Na # 1
    coordinates: [  0.111111000000000,  0.222222333333333,  0.125000000000000 ]
    mass: 22.989769
    reduced_to: 1
  - symbol: Na # 2
    coordinates: [  0.444444333333333,  0.222222333333333,  0.125000000000000 ]
    mass: 22.989769
    reduced_to: 1
  - symbol: Na # 3
    coordinates: [  0.777777666666667,  0.222222333333333,  0.125000000000000 ]
    mass: 22.989769
    reduced_to: 1
  - symbol: Na # 4
    coordinates: [  0.111111000000000,  0.555555666666667,  0.125000000000000 ]
    mass: 22.989769
    reduced_to: 1
  - symbol: Na # 5
    coordinates: [  0.444444333333333,  0.555555666666667,  0.125000000000000 ]
    mass: 22.989769
    reduced_to: 1
  - symbol: Na # 6
    coordinates: [  0.777777666666667,  0.555555666666667,  0.125000000000000 ]
    mass: 22.989769
    reduced_to: 1
  - symbol: Na # 7
    coordinates: [  0.111111000000000,  0.888889000000000,  0.125000000000000 ]
    mass: 22.989769
    reduced_to: 1
  - symbol: Na # 8
    coordinates: [  0.444444333333333,  0.888889000000000,  0.125000000000000 ]
    mass: 22.989769
    reduced_to: 1
  - symbol: Na # 9
    coordinates: [  0.777777666666667,  0.888889000000000,  0.125000000000000 ]
    mass: 22.989769
    reduced_to: 1
  - symbol: Na # 10
    coordinates: [  0.111111000000000,  0.222222333333333,  0.625000000000000 ]
    mass: 22.989769
    reduced_to: 1
  - symbol: Na # 11
    coordinates: [  0.444444333333333,  0.222222333333333,  0.625000000000000 ]
    mass: 22.989769
    reduced_to: 1
  - symbol: Na # 12
    coordinates: [  0.777777666666667,  0.222222333333333,  0.625000000000000 ]
    mass: 22.989769
    reduced_to: 1
  - symbol: Na # 13
    coordinates: [  0.111111000000000,  0.555555666666667,  0.625000000000000 ]
    mass: 22.989769
    reduced_to: 1
  - symbol: Na # 14
    coordinates: [  0.444444333333333,  0.555555666666667,  0.625000000000000 ]
    mass: 22.989769
    reduced_to: 1
  - symbol: Na # 15
    coordinates: [  0.777777666666667,  0.555555666666667,  0.625000000000000 ]
    mass: 22.989769
    reduced_to: 1
  - symbol: Na # 16
    coordinates: [  0.111111000000000,  0.888889000000000,  0.625000000000000 ]
    mass: 22.989769
    reduced_to: 1
  - symbol: Na # 17
    coordinates: [  0.444444333333333,  0.888889000000000,  0.625000000000000 ]
    mass: 22.989769
    reduced_to: 1
  - symbol: Na # 18
    coordinates: [  0.777777666666667,  0.888889000000000,  0.625000000000000 ]
    mass: 22.989769
    reduced_to: 1
  - symbol: Na # 19
    coordinates: [  0.222222333333333,  0.111111000000000,  0.375000000000000 ]
    mass: 22.989769
    reduced_to: 19
  - symbol: Na # 20
    coordinates: [  0.555555666666667,  0.111111000000000,  0.375000000000000 ]
    mass: 22.989769
    reduced_to: 19
  - symbol: Na # 21
    coordinates: [  0.888889000000000,  0.111111000000000,  0.375000000000000 ]
    mass: 22.989769
    reduced_to: 19
  - symbol: Na # 22
    coordinates: [  0.222222333333333,  0.444444333333333,  0.375000000000000 ]
    mass: 22.989769
    reduced_to: 19
  - symbol: Na # 23
    coordinates: [  0.555555666666667,  0.444444333333333,  0.375000000000000 ]
    mass: 22.989769
    reduced_to: 19
  - symbol: Na # 24
    coordinates: [  0.888889000000000,  0.444444333333333,  0.375000000000000 ]
    mass: 22.989769
    reduced_to: 19
  - symbol: Na # 25
    coordinates: [  0.222222333333333,  0.777777666666667,  0.375000000000000 ]
    mass: 22.989769
    reduced_to: 19
  - symbol: Na # 26
    coordinates: [  0.555555666666667,  0.777777666666667,  0.375000000000000 ]
    mass: 22.989769
    reduced_to: 19
  - symbol: Na # 27
    coordinates: [  0.888889000000000,  0.777777666666667,  0.375000000000000 ]
    mass: 22.989769
    reduced_to: 19
  - symbol: Na # 28
    coordinates: [  0.222222333333333,  0.111111000000000,  0.875000000000000 ]
    mass: 22.989769
    reduced_to: 19
  - symbol: Na # 29
    coordinates: [  0.555555666666667,  0.111111000000000,  0.875000000000000 ]
    mass: 22.989769
    reduced_to: 19
  - symbol: Na # 30
    coordinates: [  0.888889000000000,  0.111111000000000,  0.875000000000000 ]
    mass: 22.989769
    reduced_to: 19
  - symbol: Na # 31
    coordinates: [  0.222222333333333,  0.444444333333333,  0.875000000000000 ]
    mass: 22.989769
    reduced_to: 19
  - symbol: Na # 32
    coordinates: [  0.555555666666667,  0.444444333333333,  0.875000000000000 ]
    mass: 22.989769
    reduced_to: 19
  - symbol: Na # 33
    coordinates: [  0.888889000000000,  0.444444333333333,  0.875000000000000 ]
    mass: 22.989769
    reduced_to: 19
  - symbol: Na # 34
    coordinates: [  0.222222333333333,  0.777777666666667,  0.875000000000000 ]
    mass: 22.989769
    reduced_to: 19
  - symbol: Na # 35
    coordinates: [  0.555555666666667,  0.777777666666667,  0.875000000000000 ]
    mass: 22.989769
    reduced_to: 19
  - symbol: Na # 36
    coordinates: [  0.888889000000000,  0.777777666666667,  0.875000000000000 ]
    mass: 22.989769
    reduced_to: 19

displacements:
- atom:    1
  displacement:
    [   0.0066172348427325,  0.0000000000000000,  0.0074974797789742 ]
  forces:
  - [  -0.0050379700000000,  0.0000017100000000, -0.0053784400000000 ]
  - [   0.0013539300000000,  0.0000009200000000, -0.0000532700000000 ]
  - [   0.0013459000000000, -0.0000011200000000, -0.0000475600000000 ]
  - [   0.0003097700000000, -0.0006018500000000, -0.0000489500000000 ]
  - [   0.0003061200000000,  0.0005992700000000, -0.0000518000000000 ]
  - [  -0.0000087300000000, -0.0000008800000000, -0.0000063900000000 ]
  - [   0.0003062100000000, -0.0006023500000000, -0.0000517900000000 ]
  - [  -0.0000087100000000, -0.0000004500000000, -0.0000064400000000 ]
  - [   0.0003096200000000,  0.0006028100000000, -0.0000490100000000 ]
  - [  -0.0000020400000000, -0.0000002100000000,  0.0000036900000000 ]
  - [   0.0000020000000000, -0.0000008500000000,  0.0000058400000000 ]
  - [   0.0000021500000000,  0.0000005100000000,  0.0000062900000000 ]
  - [  -0.0000006400000000, -0.0000029200000000,  0.0000061100000000 ]
  - [  -0.0000007900000000,  0.0000017300000000,  0.0000061600000000 ]
  - [   0.0000032900000000, -0.0000006800000000,  0.0000067400000000 ]
  - [  -0.0000007400000000, -0.0000013300000000,  0.0000058600000000 ]
  - [   0.0000033100000000, -0.0000005100000000,  0.0000066400000000 ]
  - [  -0.0000008200000000,  0.0000006100000000,  0.0000062200000000 ]
  - [   0.0008447100000000, -0.0004917500000000,  0.0014364000000000 ]
  - [  -0.0000043700000000,  0.0000008900000000, -0.0000002100000000 ]
  - [  -0.0002706400000000, -0.0001516100000000,  0.0004463300000000 ]
  - [  -0.0000074500000000,  0.0006442500000000,  0.0009399100000000 ]
  - [  -0.0000046200000000, -0.0000035500000000, -0.0000035500000000 ]
  - [   0.0000038900000000, -0.0000013900000000,  0.0000038200000000 ]
  - [  -0.0000020900000000,  0.0000016500000000, -0.0000002400000000 ]
  - [  -0.0000022800000000, -0.0000011000000000, -0.0000002400000000 ]
  - [   0.0000017500000000,  0.0000053300000000,  0.0000001900000000 ]
  - [  -0.0002702000000000,  0.0001543200000000,  0.0004515800000000 ]
  - [  -0.0000038900000000,  0.0000008500000000,  0.0000001300000000 ]
  - [   0.0008398600000000,  0.0004870900000000,  0.0014255400000000 ]
  - [  -0.0000033600000000, -0.0006406000000000,  0.0009398800000000 ]
  - [   0.0000039000000000,  0.0000015200000000,  0.0000039900000000 ]
  - [  -0.0000044300000000,  0.0000034000000000, -0.0000033100000000 ]
  - [  -0.0000020700000000,  0.0000015500000000, -0.0000001400000000 ]
  - [  -0.0000022100000000, -0.0000008500000000, -0.0000002100000000 ]
  - [   0.0000016500000000, -0.0000044200000000,  0.0000002200000000 ]
