phonopy:
  version: "2.45.1"
  frequency_unit_conversion_factor: 15.633302
  symmetry_tolerance: 1.00000e-05

space_group:
  type: "Fm-3m"
  number: 225
  Hall_symbol: "-F 4 2 3"

primitive_matrix:
- [  0.000000000000000,  1.000000000000000, -0.000000000000000 ]
- [  0.000000000000000,  0.000000000000000,  1.000000000000000 ]
- [  1.000000000000000, -0.000000000000000,  0.000000000000000 ]

supercell_matrix:
- [   3,   0,   0 ]
- [   0,   3,   0 ]
- [   0,   0,   3 ]

primitive_cell:
  lattice:
  - [     0.000000000000000,     0.000000000000000,     5.207218474084418 ] # a
  - [     4.509584162425337,    -0.000000009932884,     2.603609738652843 ] # b
  - [     1.503193379869122,     4.251676921778615,     2.603609738652843 ] # c
  points:
  - symbol: K # 1
    coordinates: [  0.750000000000000,  0.750000000000000,  0.750000000000000 ]
    mass: 39.098300
  - symbol: K # 2
    coordinates: [  0.250000000000000,  0.250000000000000,  0.250000000000000 ]
    mass: 39.098300
  - symbol: S # 3
    coordinates: [  0.000000000000000,  0.000000000000000,  0.000000000000000 ]
    mass: 32.065000
  reciprocal_lattice: # without 2pi
  - [    -0.110874989599860,    -0.078400488113958,     0.192041106970421 ] # a*
  - [     0.221749935959381,    -0.078400368102546,     0.000000000000000 ] # b*
  - [     0.000000000518058,     0.235201314121235,     0.000000000000000 ] # c*

unit_cell:
  lattice:
  - [     4.509584162425337,    -0.000000009932884,     2.603609738652844 ] # a
  - [     1.503193379869122,     4.251676921778615,     2.603609738652844 ] # b
  - [     0.000000000000000,     0.000000000000000,     5.207218474084418 ] # c
  points:
  - symbol: K # 1
    coordinates: [  0.750000000000000,  0.750000000000000,  0.750000000000000 ]
    mass: 39.098300
    reduced_to: 1
  - symbol: K # 2
    coordinates: [  0.250000000000000,  0.250000000000000,  0.250000000000000 ]
    mass: 39.098300
    reduced_to: 2
  - symbol: S # 3
    coordinates: [  0.000000000000000,  0.000000000000000,  0.000000000000000 ]
    mass: 32.065000
    reduced_to: 3

supercell:
  lattice:
  - [    13.528752487276012,    -0.000000029798652,     7.810829215958531 ] # a
  - [     4.509580139607365,    12.755030765335846,     7.810829215958531 ] # b
  - [     0.000000000000000,     0.000000000000000,    15.621655422253255 ] # c
  points:
  - symbol: K # 1
    coordinates: [  0.250000000000000,  0.250000000000000,  0.250000000000000 ]
    mass: 39.098300
    reduced_to: 1
  - symbol: K # 2
    coordinates: [  0.583333333333333,  0.250000000000000,  0.250000000000000 ]
    mass: 39.098300
    reduced_to: 1
  - symbol: K # 3
    coordinates: [  0.916666666666667,  0.250000000000000,  0.250000000000000 ]
    mass: 39.098300
    reduced_to: 1
  - symbol: K # 4
    coordinates: [  0.250000000000000,  0.583333333333333,  0.250000000000000 ]
    mass: 39.098300
    reduced_to: 1
  - symbol: K # 5
    coordinates: [  0.583333333333333,  0.583333333333333,  0.250000000000000 ]
    mass: 39.098300
    reduced_to: 1
  - symbol: K # 6
    coordinates: [  0.916666666666667,  0.583333333333333,  0.250000000000000 ]
    mass: 39.098300
    reduced_to: 1
  - symbol: K # 7
    coordinates: [  0.250000000000000,  0.916666666666667,  0.250000000000000 ]
    mass: 39.098300
    reduced_to: 1
  - symbol: K # 8
    coordinates: [  0.583333333333333,  0.916666666666667,  0.250000000000000 ]
    mass: 39.098300
    reduced_to: 1
  - symbol: K # 9
    coordinates: [  0.916666666666667,  0.916666666666667,  0.250000000000000 ]
    mass: 39.098300
    reduced_to: 1
  - symbol: K # 10
    coordinates: [  0.250000000000000,  0.250000000000000,  0.583333333333333 ]
    mass: 39.098300
    reduced_to: 1
  - symbol: K # 11
    coordinates: [  0.583333333333333,  0.250000000000000,  0.583333333333333 ]
    mass: 39.098300
    reduced_to: 1
  - symbol: K # 12
    coordinates: [  0.916666666666667,  0.250000000000000,  0.583333333333333 ]
    mass: 39.098300
    reduced_to: 1
  - symbol: K # 13
    coordinates: [  0.250000000000000,  0.583333333333333,  0.583333333333333 ]
    mass: 39.098300
    reduced_to: 1
  - symbol: K # 14
    coordinates: [  0.583333333333333,  0.583333333333333,  0.583333333333333 ]
    mass: 39.098300
    reduced_to: 1
  - symbol: K # 15
    coordinates: [  0.916666666666667,  0.583333333333333,  0.583333333333333 ]
    mass: 39.098300
    reduced_to: 1
  - symbol: K # 16
    coordinates: [  0.250000000000000,  0.916666666666667,  0.583333333333333 ]
    mass: 39.098300
    reduced_to: 1
  - symbol: K # 17
    coordinates: [  0.583333333333333,  0.916666666666667,  0.583333333333333 ]
    mass: 39.098300
    reduced_to: 1
  - symbol: K # 18
    coordinates: [  0.916666666666667,  0.916666666666667,  0.583333333333333 ]
    mass: 39.098300
    reduced_to: 1
  - symbol: K # 19
    coordinates: [  0.250000000000000,  0.250000000000000,  0.916666666666667 ]
    mass: 39.098300
    reduced_to: 1
  - symbol: K # 20
    coordinates: [  0.583333333333333,  0.250000000000000,  0.916666666666667 ]
    mass: 39.098300
    reduced_to: 1
  - symbol: K # 21
    coordinates: [  0.916666666666667,  0.250000000000000,  0.916666666666667 ]
    mass: 39.098300
    reduced_to: 1
  - symbol: K # 22
    coordinates: [  0.250000000000000,  0.583333333333333,  0.916666666666667 ]
    mass: 39.098300
    reduced_to: 1
  - symbol: K # 23
    coordinates: [  0.583333333333333,  0.583333333333333,  0.916666666666667 ]
    mass: 39.098300
    reduced_to: 1
  - symbol: K # 24
    coordinates: [  0.916666666666667,  0.583333333333333,  0.916666666666667 ]
    mass: 39.098300
    reduced_to: 1
  - symbol: K # 25
    coordinates: [  0.250000000000000,  0.916666666666667,  0.916666666666667 ]
    mass: 39.098300
    reduced_to: 1
  - symbol: K # 26
    coordinates: [  0.583333333333333,  0.916666666666667,  0.916666666666667 ]
    mass: 39.098300
    reduced_to: 1
  - symbol: K # 27
    coordinates: [  0.916666666666667,  0.916666666666667,  0.916666666666667 ]
    mass: 39.098300
    reduced_to: 1
  - symbol: K # 28
    coordinates: [  0.083333333333333,  0.083333333333333,  0.083333333333333 ]
    mass: 39.098300
    reduced_to: 28
  - symbol: K # 29
    coordinates: [  0.416666666666667,  0.083333333333333,  0.083333333333333 ]
    mass: 39.098300
    reduced_to: 28
  - symbol: K # 30
    coordinates: [  0.750000000000000,  0.083333333333333,  0.083333333333333 ]
    mass: 39.098300
    reduced_to: 28
  - symbol: K # 31
    coordinates: [  0.083333333333333,  0.416666666666667,  0.083333333333333 ]
    mass: 39.098300
    reduced_to: 28
  - symbol: K # 32
    coordinates: [  0.416666666666667,  0.416666666666667,  0.083333333333333 ]
    mass: 39.098300
    reduced_to: 28
  - symbol: K # 33
    coordinates: [  0.750000000000000,  0.416666666666667,  0.083333333333333 ]
    mass: 39.098300
    reduced_to: 28
  - symbol: K # 34
    coordinates: [  0.083333333333333,  0.750000000000000,  0.083333333333333 ]
    mass: 39.098300
    reduced_to: 28
  - symbol: K # 35
    coordinates: [  0.416666666666667,  0.750000000000000,  0.083333333333333 ]
    mass: 39.098300
    reduced_to: 28
  - symbol: K # 36
    coordinates: [  0.750000000000000,  0.750000000000000,  0.083333333333333 ]
    mass: 39.098300
    reduced_to: 28
  - symbol: K # 37
    coordinates: [  0.083333333333333,  0.083333333333333,  0.416666666666667 ]
    mass: 39.098300
    reduced_to: 28
  - symbol: K # 38
    coordinates: [  0.416666666666667,  0.083333333333333,  0.416666666666667 ]
    mass: 39.098300
    reduced_to: 28
  - symbol: K # 39
    coordinates: [  0.750000000000000,  0.083333333333333,  0.416666666666667 ]
    mass: 39.098300
    reduced_to: 28
  - symbol: K # 40
    coordinates: [  0.083333333333333,  0.416666666666667,  0.416666666666667 ]
    mass: 39.098300
    reduced_to: 28
  - symbol: K # 41
    coordinates: [  0.416666666666667,  0.416666666666667,  0.416666666666667 ]
    mass: 39.098300
    reduced_to: 28
  - symbol: K # 42
    coordinates: [  0.750000000000000,  0.416666666666667,  0.416666666666667 ]
    mass: 39.098300
    reduced_to: 28
  - symbol: K # 43
    coordinates: [  0.083333333333333,  0.750000000000000,  0.416666666666667 ]
    mass: 39.098300
    reduced_to: 28
  - symbol: K # 44
    coordinates: [  0.416666666666667,  0.750000000000000,  0.416666666666667 ]
    mass: 39.098300
    reduced_to: 28
  - symbol: K # 45
    coordinates: [  0.750000000000000,  0.750000000000000,  0.416666666666667 ]
    mass: 39.098300
    reduced_to: 28
  - symbol: K # 46
    coordinates: [  0.083333333333333,  0.083333333333333,  0.750000000000000 ]
    mass: 39.098300
    reduced_to: 28
  - symbol: K # 47
    coordinates: [  0.416666666666667,  0.083333333333333,  0.750000000000000 ]
    mass: 39.098300
    reduced_to: 28
  - symbol: K # 48
    coordinates: [  0.750000000000000,  0.083333333333333,  0.750000000000000 ]
    mass: 39.098300
    reduced_to: 28
  - symbol: K # 49
    coordinates: [  0.083333333333333,  0.416666666666667,  0.750000000000000 ]
    mass: 39.098300
    reduced_to: 28
  - symbol: K # 50
    coordinates: [  0.416666666666667,  0.416666666666667,  0.750000000000000 ]
    mass: 39.098300
    reduced_to: 28
  - symbol: K # 51
    coordinates: [  0.750000000000000,  0.416666666666667,  0.750000000000000 ]
    mass: 39.098300
    reduced_to: 28
  - symbol: K # 52
    coordinates: [  0.083333333333333,  0.750000000000000,  0.750000000000000 ]
    mass: 39.098300
    reduced_to: 28
  - symbol: K # 53
    coordinates: [  0.416666666666667,  0.750000000000000,  0.750000000000000 ]
    mass: 39.098300
    reduced_to: 28
  - symbol: K # 54
    coordinates: [  0.750000000000000,  0.750000000000000,  0.750000000000000 ]
    mass: 39.098300
    reduced_to: 28
  - symbol: S # 55
    coordinates: [  0.000000000000000,  0.000000000000000,  0.000000000000000 ]
    mass: 32.065000
    reduced_to: 55
  - symbol: S # 56
    coordinates: [  0.333333333333333,  0.000000000000000,  0.000000000000000 ]
    mass: 32.065000
    reduced_to: 55
  - symbol: S # 57
    coordinates: [  0.666666666666667,  0.000000000000000,  0.000000000000000 ]
    mass: 32.065000
    reduced_to: 55
  - symbol: S # 58
    coordinates: [  0.000000000000000,  0.333333333333333,  0.000000000000000 ]
    mass: 32.065000
    reduced_to: 55
  - symbol: S # 59
    coordinates: [  0.333333333333333,  0.333333333333333,  0.000000000000000 ]
    mass: 32.065000
    reduced_to: 55
  - symbol: S # 60
    coordinates: [  0.666666666666667,  0.333333333333333,  0.000000000000000 ]
    mass: 32.065000
    reduced_to: 55
  - symbol: S # 61
    coordinates: [  0.000000000000000,  0.666666666666667,  0.000000000000000 ]
    mass: 32.065000
    reduced_to: 55
  - symbol: S # 62
    coordinates: [  0.333333333333333,  0.666666666666667,  0.000000000000000 ]
    mass: 32.065000
    reduced_to: 55
  - symbol: S # 63
    coordinates: [  0.666666666666667,  0.666666666666667,  0.000000000000000 ]
    mass: 32.065000
    reduced_to: 55
  - symbol: S # 64
    coordinates: [  0.000000000000000,  0.000000000000000,  0.333333333333333 ]
    mass: 32.065000
    reduced_to: 55
  - symbol: S # 65
    coordinates: [  0.333333333333333,  0.000000000000000,  0.333333333333333 ]
    mass: 32.065000
    reduced_to: 55
  - symbol: S # 66
    coordinates: [  0.666666666666667,  0.000000000000000,  0.333333333333333 ]
    mass: 32.065000
    reduced_to: 55
  - symbol: S # 67
    coordinates: [  0.000000000000000,  0.333333333333333,  0.333333333333333 ]
    mass: 32.065000
    reduced_to: 55
  - symbol: S # 68
    coordinates: [  0.333333333333333,  0.333333333333333,  0.333333333333333 ]
    mass: 32.065000
    reduced_to: 55
  - symbol: S # 69
    coordinates: [  0.666666666666667,  0.333333333333333,  0.333333333333333 ]
    mass: 32.065000
    reduced_to: 55
  - symbol: S # 70
    coordinates: [  0.000000000000000,  0.666666666666667,  0.333333333333333 ]
    mass: 32.065000
    reduced_to: 55
  - symbol: S # 71
    coordinates: [  0.333333333333333,  0.666666666666667,  0.333333333333333 ]
    mass: 32.065000
    reduced_to: 55
  - symbol: S # 72
    coordinates: [  0.666666666666667,  0.666666666666667,  0.333333333333333 ]
    mass: 32.065000
    reduced_to: 55
  - symbol: S # 73
    coordinates: [  0.000000000000000,  0.000000000000000,  0.666666666666667 ]
    mass: 32.065000
    reduced_to: 55
  - symbol: S # 74
    coordinates: [  0.333333333333333,  0.000000000000000,  0.666666666666667 ]
    mass: 32.065000
    reduced_to: 55
  - symbol: S # 75
    coordinates: [  0.666666666666667,  0.000000000000000,  0.666666666666667 ]
    mass: 32.065000
    reduced_to: 55
  - symbol: S # 76
    coordinates: [  0.000000000000000,  0.333333333333333,  0.666666666666667 ]
    mass: 32.065000
    reduced_to: 55
  - symbol: S # 77
    coordinates: [  0.333333333333333,  0.333333333333333,  0.666666666666667 ]
    mass: 32.065000
    reduced_to: 55
  - symbol: S # 78
    coordinates: [  0.666666666666667,  0.333333333333333,  0.666666666666667 ]
    mass: 32.065000
    reduced_to: 55
  - symbol: S # 79
    coordinates: [  0.000000000000000,  0.666666666666667,  0.666666666666667 ]
    mass: 32.065000
    reduced_to: 55
  - symbol: S # 80
    coordinates: [  0.333333333333333,  0.666666666666667,  0.666666666666667 ]
    mass: 32.065000
    reduced_to: 55
  - symbol: S # 81
    coordinates: [  0.666666666666667,  0.666666666666667,  0.666666666666667 ]
    mass: 32.065000
    reduced_to: 55

displacements:
- atom:    1
  displacement:
    [   0.0086602539475839, -0.0000000000190752,  0.0050000001563358 ]
  forces:
  - [  -0.0165393200000000, -0.0001010100000000, -0.0097127100000000 ]
  - [   0.0005230100000000, -0.0001228000000000,  0.0001026500000000 ]
  - [   0.0003511200000000,  0.0001236900000000,  0.0004035300000000 ]
  - [  -0.0001298000000000,  0.0005163500000000,  0.0000354400000000 ]
  - [   0.0001447600000000,  0.0000001900000000,  0.0000833100000000 ]
  - [  -0.0000363600000000, -0.0005185700000000, -0.0001287500000000 ]
  - [  -0.0001290600000000,  0.0001481800000000,  0.0000347400000000 ]
  - [  -0.0000346700000000, -0.0001513300000000, -0.0001291100000000 ]
  - [   0.0001425100000000, -0.0000012500000000,  0.0000842600000000 ]
  - [  -0.0003414300000000, -0.0000827700000000,  0.0004011900000000 ]
  - [   0.0001460000000000, -0.0000003700000000,  0.0000843900000000 ]
  - [   0.0001783100000000,  0.0000842800000000, -0.0004965200000000 ]
  - [  -0.0000529000000000,  0.0000704000000000,  0.0000842500000000 ]
  - [   0.0000453000000000, -0.0000698800000000, -0.0000853400000000 ]
  - [   0.0000046800000000, -0.0000001500000000,  0.0000033200000000 ]
  - [  -0.0002242100000000, -0.0000013600000000, -0.0001270800000000 ]
  - [   0.0000720800000000, -0.0000954600000000,  0.0001184200000000 ]
  - [   0.0001360400000000,  0.0000928600000000,  0.0000038400000000 ]
  - [  -0.0001678300000000,  0.0000397200000000,  0.0001027800000000 ]
  - [   0.0000047200000000, -0.0000397900000000, -0.0001960200000000 ]
  - [   0.0001449600000000,  0.0000001000000000,  0.0000829300000000 ]
  - [  -0.0002233500000000,  0.0000002500000000, -0.0001287900000000 ]
  - [   0.0001384200000000,  0.0000939400000000,  0.0000035200000000 ]
  - [   0.0000707600000000, -0.0000936100000000,  0.0001187200000000 ]
  - [  -0.0000531900000000,  0.0000683900000000,  0.0000824700000000 ]
  - [   0.0000057100000000, -0.0000017200000000,  0.0000037200000000 ]
  - [   0.0000427000000000, -0.0000714800000000, -0.0000876900000000 ]
  - [  -0.0000566600000000,  0.0000844400000000,  0.0001037100000000 ]
  - [  -0.0006297300000000,  0.0000045700000000, -0.0003577600000000 ]
  - [   0.0000598500000000, -0.0000831400000000, -0.0001027600000000 ]
  - [   0.0004722900000000, -0.0021323500000000,  0.0024951300000000 ]
  - [   0.0024067600000000,  0.0021524600000000, -0.0008488600000000 ]
  - [   0.0001782600000000,  0.0000005500000000,  0.0001043900000000 ]
  - [  -0.0001755200000000,  0.0000005700000000, -0.0001021000000000 ]
  - [   0.0001052800000000,  0.0000761300000000,  0.0000241500000000 ]
  - [   0.0000726900000000, -0.0000734800000000,  0.0000787300000000 ]
  - [   0.0021199000000000,  0.0025263000000000, -0.0003565600000000 ]
  - [   0.0007464700000000, -0.0025436600000000,  0.0020284500000000 ]
  - [   0.0001778500000000,  0.0000005600000000,  0.0001032000000000 ]
  - [  -0.0014580100000000, -0.0000037800000000, -0.0008478600000000 ]
  - [   0.0004300700000000,  0.0002252000000000,  0.0006142900000000 ]
  - [   0.0007376400000000, -0.0002203900000000,  0.0000646000000000 ]
  - [  -0.0000860300000000,  0.0001435400000000,  0.0000230900000000 ]
  - [   0.0001143700000000,  0.0000018300000000,  0.0000641500000000 ]
  - [  -0.0000230900000000, -0.0001414300000000, -0.0000873900000000 ]
  - [  -0.0001751600000000,  0.0000010800000000, -0.0001018900000000 ]
  - [   0.0000571400000000, -0.0000547300000000,  0.0001025300000000 ]
  - [   0.0001176500000000,  0.0000561000000000, -0.0000010100000000 ]
  - [  -0.0001328200000000,  0.0000122000000000,  0.0001024300000000 ]
  - [   0.0001126000000000,  0.0000009300000000,  0.0000668000000000 ]
  - [   0.0000213000000000, -0.0000113100000000, -0.0001685300000000 ]
  - [  -0.0000535800000000,  0.0000683000000000,  0.0000786600000000 ]
  - [   0.0000409300000000, -0.0000668400000000, -0.0000885800000000 ]
  - [   0.0000144700000000,  0.0000017300000000,  0.0000078600000000 ]
  - [  -0.0000106500000000,  0.0000006200000000, -0.0000056800000000 ]
  - [   0.0000456600000000, -0.0000557600000000, -0.0000651200000000 ]
  - [  -0.0000305300000000,  0.0000559700000000,  0.0000720900000000 ]
  - [  -0.0000908600000000, -0.0000477000000000, -0.0005402900000000 ]
  - [   0.0013057800000000, -0.0000011500000000,  0.0007662600000000 ]
  - [  -0.0005151500000000,  0.0000466500000000,  0.0001900300000000 ]
  - [   0.0001449700000000,  0.0004499500000000, -0.0001330500000000 ]
  - [  -0.0000444200000000, -0.0004521700000000,  0.0001899300000000 ]
  - [  -0.0001053800000000, -0.0000003200000000, -0.0000612700000000 ]
  - [  -0.0002091000000000, -0.0003831000000000, -0.0003361600000000 ]
  - [   0.0013085300000000,  0.0000114600000000,  0.0007582100000000 ]
  - [  -0.0003937300000000,  0.0003833600000000, -0.0000137800000000 ]
  - [   0.0060719200000000, -0.0016785700000000,  0.0007645700000000 ]
  - [   0.0037937500000000,  0.0017655600000000,  0.0050752900000000 ]
  - [  -0.0006897600000000, -0.0000008400000000, -0.0003984900000000 ]
  - [   0.0003321800000000, -0.0000007200000000,  0.0001914200000000 ]
  - [  -0.0001092100000000, -0.0003316100000000, -0.0001939300000000 ]
  - [  -0.0002203100000000,  0.0003306700000000,  0.0000026100000000 ]
  - [  -0.0001295700000000, -0.0003268900000000,  0.0003418100000000 ]
  - [   0.0002321700000000,  0.0003277600000000, -0.0002848700000000 ]
  - [  -0.0001032900000000, -0.0000002100000000, -0.0000615600000000 ]
  - [   0.0003323300000000, -0.0000005400000000,  0.0001914300000000 ]
  - [   0.0000091800000000,  0.0000020800000000, -0.0003994000000000 ]
  - [  -0.0003389600000000, -0.0000038500000000,  0.0002085500000000 ]
  - [   0.0000327500000000, -0.0000494500000000, -0.0000613900000000 ]
  - [   0.0000041600000000, -0.0000008100000000,  0.0000046300000000 ]
  - [  -0.0000364400000000,  0.0000475000000000,  0.0000577000000000 ]
- atom:   55
  displacement:
    [   0.0086602539475839, -0.0000000000190752,  0.0050000001563358 ]
  forces:
  - [  -0.0000108200000000,  0.0000002300000000, -0.0000069800000000 ]
  - [  -0.0001905200000000,  0.0002770600000000,  0.0003433000000000 ]
  - [   0.0002011100000000, -0.0002772500000000, -0.0003373400000000 ]
  - [   0.0001450000000000,  0.0001180300000000, -0.0001325900000000 ]
  - [  -0.0001075000000000, -0.0000002000000000, -0.0000622400000000 ]
  - [  -0.0000457400000000, -0.0001182200000000,  0.0001924400000000 ]
  - [  -0.0000911900000000,  0.0002824600000000, -0.0005429200000000 ]
  - [  -0.0005148100000000, -0.0002854200000000,  0.0001924400000000 ]
  - [   0.0013162900000000,  0.0000054800000000,  0.0007408900000000 ]
  - [   0.0000269600000000, -0.0002166500000000,  0.0000712600000000 ]
  - [  -0.0001063200000000, -0.0000003300000000, -0.0000614300000000 ]
  - [   0.0000744100000000,  0.0002173200000000, -0.0000120400000000 ]
  - [   0.0000323500000000, -0.0000491200000000, -0.0000615200000000 ]
  - [  -0.0000377900000000,  0.0000493400000000,  0.0000616200000000 ]
  - [   0.0000021200000000,  0.0000001400000000,  0.0000026300000000 ]
  - [   0.0003328500000000, -0.0000013800000000,  0.0001946200000000 ]
  - [  -0.0003418400000000, -0.0000044400000000,  0.0002069300000000 ]
  - [   0.0000052600000000,  0.0000018900000000, -0.0003988500000000 ]
  - [  -0.0003661400000000, -0.0004945800000000, -0.0000654200000000 ]
  - [  -0.0002393300000000,  0.0004936400000000, -0.0002832100000000 ]
  - [   0.0013096100000000, -0.0000201400000000,  0.0007557500000000 ]
  - [   0.0003334400000000, -0.0000001100000000,  0.0001927700000000 ]
  - [  -0.0002240200000000,  0.0003310300000000,  0.0000024700000000 ]
  - [  -0.0001114300000000, -0.0003304900000000, -0.0001948000000000 ]
  - [   0.0062944200000000, -0.0017696200000000,  0.0007458100000000 ]
  - [  -0.0006918800000000, -0.0000016000000000, -0.0003989800000000 ]
  - [   0.0036939400000000,  0.0016761200000000,  0.0048740000000000 ]
  - [   0.0037956800000000,  0.0017684200000000,  0.0050776800000000 ]
  - [  -0.0006915300000000,  0.0000010800000000, -0.0003994100000000 ]
  - [   0.0060693500000000, -0.0016766700000000,  0.0007648800000000 ]
  - [  -0.0001082400000000, -0.0003311200000000, -0.0001946800000000 ]
  - [  -0.0002237500000000,  0.0003317900000000,  0.0000020200000000 ]
  - [   0.0003316900000000,  0.0000006400000000,  0.0001934500000000 ]
  - [   0.0013117000000000,  0.0000203300000000,  0.0007563600000000 ]
  - [  -0.0002388400000000,  0.0004956100000000, -0.0002835700000000 ]
  - [  -0.0003653800000000, -0.0004919500000000, -0.0000656900000000 ]
  - [   0.0000101200000000,  0.0000034400000000, -0.0003987600000000 ]
  - [  -0.0003413600000000, -0.0000021900000000,  0.0002083100000000 ]
  - [   0.0003319200000000,  0.0000010500000000,  0.0001923500000000 ]
  - [   0.0000055400000000,  0.0000002500000000,  0.0000031200000000 ]
  - [  -0.0000373000000000,  0.0000500600000000,  0.0000586800000000 ]
  - [   0.0000316300000000, -0.0000484900000000, -0.0000627400000000 ]
  - [   0.0000765700000000,  0.0002175500000000, -0.0000130300000000 ]
  - [  -0.0001058000000000,  0.0000007800000000, -0.0000632600000000 ]
  - [   0.0000261200000000, -0.0002154200000000,  0.0000711800000000 ]
  - [   0.0013023200000000, -0.0000061300000000,  0.0007733300000000 ]
  - [  -0.0005159200000000, -0.0002831400000000,  0.0001918900000000 ]
  - [  -0.0000921700000000,  0.0002844000000000, -0.0005415200000000 ]
  - [  -0.0000422200000000, -0.0001183400000000,  0.0001919800000000 ]
  - [  -0.0001070200000000,  0.0000007200000000, -0.0000612000000000 ]
  - [   0.0001428700000000,  0.0001199200000000, -0.0001354300000000 ]
  - [   0.0002023800000000, -0.0002767600000000, -0.0003364600000000 ]
  - [  -0.0001902400000000,  0.0002783600000000,  0.0003417000000000 ]
  - [  -0.0000105800000000,  0.0000017500000000, -0.0000066100000000 ]
  - [  -0.0244152300000000,  0.0000020000000000, -0.0140961800000000 ]
  - [   0.0019619600000000,  0.0000006200000000,  0.0011337300000000 ]
  - [   0.0019694100000000,  0.0000004400000000,  0.0011357300000000 ]
  - [  -0.0002223800000000,  0.0016031400000000, -0.0002216200000000 ]
  - [   0.0003208900000000,  0.0000002000000000,  0.0001851900000000 ]
  - [  -0.0002996400000000, -0.0016034500000000, -0.0000844100000000 ]
  - [  -0.0002203500000000,  0.0016011700000000, -0.0002187200000000 ]
  - [  -0.0003052800000000, -0.0016042800000000, -0.0000844600000000 ]
  - [   0.0003211200000000, -0.0000007500000000,  0.0001849100000000 ]
  - [  -0.0010048500000000, -0.0006108900000000,  0.0011336500000000 ]
  - [   0.0003194000000000,  0.0000000900000000,  0.0001846300000000 ]
  - [   0.0004836300000000,  0.0006080100000000, -0.0014362000000000 ]
  - [   0.0000374300000000,  0.0000996400000000,  0.0001848100000000 ]
  - [   0.0001781900000000, -0.0001008900000000, -0.0000595500000000 ]
  - [  -0.0002155200000000, -0.0000007400000000, -0.0001248300000000 ]
  - [  -0.0001417200000000,  0.0000011100000000, -0.0000834200000000 ]
  - [  -0.0000198200000000, -0.0002787300000000,  0.0002169000000000 ]
  - [   0.0001796300000000,  0.0002786700000000, -0.0001249200000000 ]
  - [  -0.0010014300000000, -0.0006081500000000,  0.0011335100000000 ]
  - [   0.0004785400000000,  0.0006107700000000, -0.0014385800000000 ]
  - [   0.0003234300000000, -0.0000003100000000,  0.0001844000000000 ]
  - [  -0.0001430300000000, -0.0000024000000000, -0.0000811000000000 ]
  - [   0.0001770400000000,  0.0002779000000000, -0.0001251500000000 ]
  - [  -0.0000179200000000, -0.0002792100000000,  0.0002181000000000 ]
  - [   0.0000381600000000,  0.0000993600000000,  0.0001846100000000 ]
  - [  -0.0002172300000000, -0.0000005800000000, -0.0001232700000000 ]
  - [   0.0001796300000000, -0.0001017600000000, -0.0000608900000000 ]
