nqpoint: 613    
npath: 9      
segment_nqpoint:
- 87
- 51
- 101
- 45
- 87
- 51
- 101
- 45
- 45
labels:
- [ '$\Gamma$', '$\mathrm{M}$' ]
- [ '$\mathrm{M}$', '$\mathrm{K}$' ]
- [ '$\mathrm{K}$', '$\Gamma$' ]
- [ '$\Gamma$', '$\mathrm{A}$' ]
- [ '$\mathrm{A}$', '$\mathrm{L}$' ]
- [ '$\mathrm{L}$', '$\mathrm{H}$' ]
- [ '$\mathrm{H}$', '$\mathrm{A}$' ]
- [ '$\mathrm{L}$', '$\mathrm{M}$' ]
- [ '$\mathrm{H}$', '$\mathrm{K}$' ]
reciprocal_lattice:
- [   0.26930944,   0.15548586,   0.00000000 ] # a*
- [   0.00000000,   0.31097180,   0.00000000 ] # b*
- [   0.00000000,   0.00000000,   0.15846070 ] # c*
natom: 2      
lattice:
- [     3.713200658966768,     0.000000000000000,     0.000000000000000 ] # a
- [    -1.856599826172029,     3.215725702656741,     0.000000000000000 ] # b
- [     0.000000000000000,     0.000000000000000,     6.310713051038003 ] # c
points:
- symbol: Na # 1
  coordinates: [  0.333333000000000,  0.666667000000000,  0.250000000000000 ]
  mass: 22.989769
- symbol: Na # 2
  coordinates: [  0.666667000000000,  0.333333000000000,  0.750000000000000 ]
  mass: 22.989769

phonon:
- q-position: [    0.0000000,    0.0000000,    0.0000000 ]
  distance:    0.0000000
  band:
  - # 1
    frequency:   -0.0000002455
  - # 2
    frequency:   -0.0000002423
  - # 3
    frequency:    0.0000000590
  - # 4
    frequency:    1.9317670464
  - # 5
    frequency:    1.9317674493
  - # 6
    frequency:    3.9554240294

- q-position: [    0.0058140,    0.0000000,    0.0000000 ]
  distance:    0.0018080
  band:
  - # 1
    frequency:    0.0325983272
  - # 2
    frequency:    0.0363206140
  - # 3
    frequency:    0.0668478968
  - # 4
    frequency:    1.9321042032
  - # 5
    frequency:    1.9327706311
  - # 6
    frequency:    3.9552646614

- q-position: [    0.0116279,    0.0000000,    0.0000000 ]
  distance:    0.0036160
  band:
  - # 1
    frequency:    0.0651936828
  - # 2
    frequency:    0.0726293479
  - # 3
    frequency:    0.1336743738
  - # 4
    frequency:    1.9331137662
  - # 5
    frequency:    1.9357767687
  - # 6
    frequency:    3.9547866014

- q-position: [    0.0174419,    0.0000000,    0.0000000 ]
  distance:    0.0054239
  band:
  - # 1
    frequency:    0.0977830927
  - # 2
    frequency:    0.1089143248
  - # 3
    frequency:    0.2004580180
  - # 4
    frequency:    1.9347936983
  - # 5
    frequency:    1.9407720289
  - # 6
    frequency:    3.9539899822

- q-position: [    0.0232558,    0.0000000,    0.0000000 ]
  distance:    0.0072319
  band:
  - # 1
    frequency:    0.1303635778
  - # 2
    frequency:    0.1451636745
  - # 3
    frequency:    0.2671774310
  - # 4
    frequency:    1.9371400070
  - # 5
    frequency:    1.9477342060
  - # 6
    frequency:    3.9528750251

- q-position: [    0.0290698,    0.0000000,    0.0000000 ]
  distance:    0.0090399
  band:
  - # 1
    frequency:    0.1629321516
  - # 2
    frequency:    0.1813655365
  - # 3
    frequency:    0.3338112356
  - # 4
    frequency:    1.9401471358
  - # 5
    frequency:    1.9566326987
  - # 6
    frequency:    3.9514420401

- q-position: [    0.0348837,    0.0000000,    0.0000000 ]
  distance:    0.0108479
  band:
  - # 1
    frequency:    0.1954858175
  - # 2
    frequency:    0.2175080634
  - # 3
    frequency:    0.4003380831
  - # 4
    frequency:    1.9438079974
  - # 5
    frequency:    1.9674289744
  - # 6
    frequency:    3.9496914268

- q-position: [    0.0406977,    0.0000000,    0.0000000 ]
  distance:    0.0126558
  band:
  - # 1
    frequency:    0.2280215660
  - # 2
    frequency:    0.2535794244
  - # 3
    frequency:    0.4667366603
  - # 4
    frequency:    1.9481140140
  - # 5
    frequency:    1.9800771359
  - # 6
    frequency:    3.9476236746

- q-position: [    0.0465116,    0.0000000,    0.0000000 ]
  distance:    0.0144638
  band:
  - # 1
    frequency:    0.2605363725
  - # 2
    frequency:    0.2895678082
  - # 3
    frequency:    0.5329856966
  - # 4
    frequency:    1.9530551672
  - # 5
    frequency:    1.9945245713
  - # 6
    frequency:    3.9452393633

- q-position: [    0.0523256,    0.0000000,    0.0000000 ]
  distance:    0.0162718
  band:
  - # 1
    frequency:    0.2930271947
  - # 2
    frequency:    0.3254614264
  - # 3
    frequency:    0.5990639712
  - # 4
    frequency:    1.9586200539
  - # 5
    frequency:    2.0107126651
  - # 6
    frequency:    3.9425391640

- q-position: [    0.0581395,    0.0000000,    0.0000000 ]
  distance:    0.0180798
  band:
  - # 1
    frequency:    0.3254909690
  - # 2
    frequency:    0.3612485171
  - # 3
    frequency:    0.6649503199
  - # 4
    frequency:    1.9647959491
  - # 5
    frequency:    2.0285775493
  - # 6
    frequency:    3.9395238401

- q-position: [    0.0639535,    0.0000000,    0.0000000 ]
  distance:    0.0198877
  band:
  - # 1
    frequency:    0.3579246085
  - # 2
    frequency:    0.3969173478
  - # 3
    frequency:    0.7306236422
  - # 4
    frequency:    1.9715688744
  - # 5
    frequency:    2.0480508723
  - # 6
    frequency:    3.9361942480

- q-position: [    0.0697674,    0.0000000,    0.0000000 ]
  distance:    0.0216957
  band:
  - # 1
    frequency:    0.3903249999
  - # 2
    frequency:    0.4324562191
  - # 3
    frequency:    0.7960629083
  - # 4
    frequency:    1.9789236716
  - # 5
    frequency:    2.0690605673
  - # 6
    frequency:    3.9325513389

- q-position: [    0.0755814,    0.0000000,    0.0000000 ]
  distance:    0.0235037
  band:
  - # 1
    frequency:    0.4226890000
  - # 2
    frequency:    0.4678534675
  - # 3
    frequency:    0.8612471660
  - # 4
    frequency:    1.9868440796
  - # 5
    frequency:    2.0915316018
  - # 6
    frequency:    3.9285961597

- q-position: [    0.0813953,    0.0000000,    0.0000000 ]
  distance:    0.0253117
  band:
  - # 1
    frequency:    0.4550134331
  - # 2
    frequency:    0.5030974693
  - # 3
    frequency:    0.9261555475
  - # 4
    frequency:    1.9953128146
  - # 5
    frequency:    2.1153866946
  - # 6
    frequency:    3.9243298544

- q-position: [    0.0872093,    0.0000000,    0.0000000 ]
  distance:    0.0271196
  band:
  - # 1
    frequency:    0.4872950872
  - # 2
    frequency:    0.5381766436
  - # 3
    frequency:    0.9907672763
  - # 4
    frequency:    2.0043116530
  - # 5
    frequency:    2.1405469879
  - # 6
    frequency:    3.9197536666

- q-position: [    0.0930233,    0.0000000,    0.0000000 ]
  distance:    0.0289276
  band:
  - # 1
    frequency:    0.5195307108
  - # 2
    frequency:    0.5730794557
  - # 3
    frequency:    1.0550616743
  - # 4
    frequency:    2.0138215146
  - # 5
    frequency:    2.1669326667
  - # 6
    frequency:    3.9148689406

- q-position: [    0.0988372,    0.0000000,    0.0000000 ]
  distance:    0.0307356
  band:
  - # 1
    frequency:    0.5517170095
  - # 2
    frequency:    0.6077944205
  - # 3
    frequency:    1.1190181680
  - # 4
    frequency:    2.0238225470
  - # 5
    frequency:    2.1944635196
  - # 6
    frequency:    3.9096771239

- q-position: [    0.1046512,    0.0000000,    0.0000000 ]
  distance:    0.0325436
  band:
  - # 1
    frequency:    0.5838506416
  - # 2
    frequency:    0.6423101058
  - # 3
    frequency:    1.1826162955
  - # 4
    frequency:    2.0342942095
  - # 5
    frequency:    2.2230594383
  - # 6
    frequency:    3.9041797695

- q-position: [    0.1104651,    0.0000000,    0.0000000 ]
  distance:    0.0343515
  band:
  - # 1
    frequency:    0.6159282145
  - # 2
    frequency:    0.6766151358
  - # 3
    frequency:    1.2458357131
  - # 4
    frequency:    2.0452153565
  - # 5
    frequency:    2.2526408544
  - # 6
    frequency:    3.8983785386

- q-position: [    0.1162791,    0.0000000,    0.0000000 ]
  distance:    0.0361595
  band:
  - # 1
    frequency:    0.6479462802
  - # 2
    frequency:    0.7106981943
  - # 3
    frequency:    1.3086562018
  - # 4
    frequency:    2.0565643181
  - # 5
    frequency:    2.2831291151
  - # 6
    frequency:    3.8922752032

- q-position: [    0.1220930,    0.0000000,    0.0000000 ]
  distance:    0.0379675
  band:
  - # 1
    frequency:    0.6799013311
  - # 2
    frequency:    0.7445480281
  - # 3
    frequency:    1.3710576738
  - # 4
    frequency:    2.0683189803
  - # 5
    frequency:    2.3144468012
  - # 6
    frequency:    3.8858716497

- q-position: [    0.1279070,    0.0000000,    0.0000000 ]
  distance:    0.0397755
  band:
  - # 1
    frequency:    0.7117897947
  - # 2
    frequency:    0.7781534508
  - # 3
    frequency:    1.4330201790
  - # 4
    frequency:    2.0804568608
  - # 5
    frequency:    2.3465179886
  - # 6
    frequency:    3.8791698818

- q-position: [    0.1337209,    0.0000000,    0.0000000 ]
  distance:    0.0415834
  band:
  - # 1
    frequency:    0.7436080289
  - # 2
    frequency:    0.8115033455
  - # 3
    frequency:    1.4945239109
  - # 4
    frequency:    2.0929551833
  - # 5
    frequency:    2.3792684608
  - # 6
    frequency:    3.8721720249

- q-position: [    0.1395349,    0.0000000,    0.0000000 ]
  distance:    0.0433914
  band:
  - # 1
    frequency:    0.7753523163
  - # 2
    frequency:    0.8445866690
  - # 3
    frequency:    1.5555492134
  - # 4
    frequency:    2.1057909477
  - # 5
    frequency:    2.4126258748
  - # 6
    frequency:    3.8648803298

- q-position: [    0.1453488,    0.0000000,    0.0000000 ]
  distance:    0.0451994
  band:
  - # 1
    frequency:    0.8070188585
  - # 2
    frequency:    0.8773924546
  - # 3
    frequency:    1.6160765865
  - # 4
    frequency:    2.1189409965
  - # 5
    frequency:    2.4465198863
  - # 6
    frequency:    3.8572971777

- q-position: [    0.1511628,    0.0000000,    0.0000000 ]
  distance:    0.0470074
  band:
  - # 1
    frequency:    0.8386037695
  - # 2
    frequency:    0.9099098159
  - # 3
    frequency:    1.6760866923
  - # 4
    frequency:    2.1323820782
  - # 5
    frequency:    2.4808822394
  - # 6
    frequency:    3.8494250849

- q-position: [    0.1569767,    0.0000000,    0.0000000 ]
  distance:    0.0488153
  band:
  - # 1
    frequency:    0.8701030693
  - # 2
    frequency:    0.9421279501
  - # 3
    frequency:    1.7355603611
  - # 4
    frequency:    2.1460909060
  - # 5
    frequency:    2.5156468256
  - # 6
    frequency:    3.8412667087

- q-position: [    0.1627907,    0.0000000,    0.0000000 ]
  distance:    0.0506233
  band:
  - # 1
    frequency:    0.9015126766
  - # 2
    frequency:    0.9740361415
  - # 3
    frequency:    1.7944785969
  - # 4
    frequency:    2.1600442132
  - # 5
    frequency:    2.5507497153
  - # 6
    frequency:    3.8328248531

- q-position: [    0.1686047,    0.0000000,    0.0000000 ]
  distance:    0.0524313
  band:
  - # 1
    frequency:    0.9328284006
  - # 2
    frequency:    1.0056237650
  - # 3
    frequency:    1.8528225834
  - # 4
    frequency:    2.1742188042
  - # 5
    frequency:    2.5861291683
  - # 6
    frequency:    3.8241024757

- q-position: [    0.1744186,    0.0000000,    0.0000000 ]
  distance:    0.0542393
  band:
  - # 1
    frequency:    0.9640459331
  - # 2
    frequency:    1.0368802895
  - # 3
    frequency:    1.9105736888
  - # 4
    frequency:    2.1885916016
  - # 5
    frequency:    2.6217256253
  - # 6
    frequency:    3.8151026952

- q-position: [    0.1802326,    0.0000000,    0.0000000 ]
  distance:    0.0560472
  band:
  - # 1
    frequency:    0.9951608386
  - # 2
    frequency:    1.0677952813
  - # 3
    frequency:    1.9677134716
  - # 4
    frequency:    2.2031396898
  - # 5
    frequency:    2.6574816845
  - # 6
    frequency:    3.8058287990

- q-position: [    0.1860465,    0.0000000,    0.0000000 ]
  distance:    0.0578552
  band:
  - # 1
    frequency:    1.0261685452
  - # 2
    frequency:    1.0983584080
  - # 3
    frequency:    2.0242236857
  - # 4
    frequency:    2.2178403542
  - # 5
    frequency:    2.6933420665
  - # 6
    frequency:    3.7962842524

- q-position: [    0.1918605,    0.0000000,    0.0000000 ]
  distance:    0.0596632
  band:
  - # 1
    frequency:    1.0570643331
  - # 2
    frequency:    1.1285594413
  - # 3
    frequency:    2.0800862850
  - # 4
    frequency:    2.2326711175
  - # 5
    frequency:    2.7292535693
  - # 6
    frequency:    3.7864727079

- q-position: [    0.1976744,    0.0000000,    0.0000000 ]
  distance:    0.0614712
  band:
  - # 1
    frequency:    1.0878433233
  - # 2
    frequency:    1.1583882610
  - # 3
    frequency:    2.1352834284
  - # 4
    frequency:    2.2476097717
  - # 5
    frequency:    2.7651650172
  - # 6
    frequency:    3.7763980164

- q-position: [    0.2034884,    0.0000000,    0.0000000 ]
  distance:    0.0632791
  band:
  - # 1
    frequency:    1.1185004648
  - # 2
    frequency:    1.1878348583
  - # 3
    frequency:    2.1897974841
  - # 4
    frequency:    2.2626344076
  - # 5
    frequency:    2.8010272039
  - # 6
    frequency:    3.7660642386

- q-position: [    0.2093023,    0.0000000,    0.0000000 ]
  distance:    0.0650871
  band:
  - # 1
    frequency:    1.1490305204
  - # 2
    frequency:    1.2168893395
  - # 3
    frequency:    2.2436110338
  - # 4
    frequency:    2.2777234404
  - # 5
    frequency:    2.8367928326
  - # 6
    frequency:    3.7554756578

- q-position: [    0.2151163,    0.0000000,    0.0000000 ]
  distance:    0.0668951
  band:
  - # 1
    frequency:    1.1794280518
  - # 2
    frequency:    1.2455419290
  - # 3
    frequency:    2.2928556330
  - # 4
    frequency:    2.2967068770
  - # 5
    frequency:    2.8724164539
  - # 6
    frequency:    3.7446367943

- q-position: [    0.2209302,    0.0000000,    0.0000000 ]
  distance:    0.0687031
  band:
  - # 1
    frequency:    1.2096874029
  - # 2
    frequency:    1.2737829733
  - # 3
    frequency:    2.3080101161
  - # 4
    frequency:    2.3490680341
  - # 5
    frequency:    2.9078544034
  - # 6
    frequency:    3.7335524208

- q-position: [    0.2267442,    0.0000000,    0.0000000 ]
  distance:    0.0705110
  band:
  - # 1
    frequency:    1.2398026816
  - # 2
    frequency:    1.3016029442
  - # 3
    frequency:    2.3231664060
  - # 4
    frequency:    2.4006777503
  - # 5
    frequency:    2.9430647385
  - # 6
    frequency:    3.7222275799

- q-position: [    0.2325581,    0.0000000,    0.0000000 ]
  distance:    0.0723190
  band:
  - # 1
    frequency:    1.2697677401
  - # 2
    frequency:    1.3289924423
  - # 3
    frequency:    2.3383044198
  - # 4
    frequency:    2.4515194980
  - # 5
    frequency:    2.9780071769
  - # 6
    frequency:    3.7106676026

- q-position: [    0.2383721,    0.0000000,    0.0000000 ]
  distance:    0.0741270
  band:
  - # 1
    frequency:    1.2995761526
  - # 2
    frequency:    1.3559422005
  - # 3
    frequency:    2.3534044885
  - # 4
    frequency:    2.5015769800
  - # 5
    frequency:    3.0126430362
  - # 6
    frequency:    3.6988781298

- q-position: [    0.2441860,    0.0000000,    0.0000000 ]
  distance:    0.0759350
  band:
  - # 1
    frequency:    1.3292211920
  - # 2
    frequency:    1.3824430875
  - # 3
    frequency:    2.3684473681
  - # 4
    frequency:    2.5508341312
  - # 5
    frequency:    3.0469351756
  - # 6
    frequency:    3.6868651346

- q-position: [    0.2500000,    0.0000000,    0.0000000 ]
  distance:    0.0777429
  band:
  - # 1
    frequency:    1.3586958027
  - # 2
    frequency:    1.4084861112
  - # 3
    frequency:    2.3834142491
  - # 4
    frequency:    2.5992751206
  - # 5
    frequency:    3.0808479402
  - # 6
    frequency:    3.6746349485

- q-position: [    0.2558140,    0.0000000,    0.0000000 ]
  distance:    0.0795509
  band:
  - # 1
    frequency:    1.3879925727
  - # 2
    frequency:    1.4340624219
  - # 3
    frequency:    2.3982867639
  - # 4
    frequency:    2.6468843521
  - # 5
    frequency:    3.1143471072
  - # 6
    frequency:    3.6621942889

- q-position: [    0.2616279,    0.0000000,    0.0000000 ]
  distance:    0.0813589
  band:
  - # 1
    frequency:    1.4171037008
  - # 2
    frequency:    1.4591633161
  - # 3
    frequency:    2.4130469932
  - # 4
    frequency:    2.6936464658
  - # 5
    frequency:    3.1473998363
  - # 6
    frequency:    3.6495502904

- q-position: [    0.2674419,    0.0000000,    0.0000000 ]
  distance:    0.0831669
  band:
  - # 1
    frequency:    1.4460209619
  - # 2
    frequency:    1.4837802398
  - # 3
    frequency:    2.4276774703
  - # 4
    frequency:    2.7395463371
  - # 5
    frequency:    3.1799746218
  - # 6
    frequency:    3.6367105391

- q-position: [    0.2732558,    0.0000000,    0.0000000 ]
  distance:    0.0849748
  band:
  - # 1
    frequency:    1.4747356683
  - # 2
    frequency:    1.5079047914
  - # 3
    frequency:    2.4421611852
  - # 4
    frequency:    2.7845690767
  - # 5
    frequency:    3.2120412488
  - # 6
    frequency:    3.6236831101

- q-position: [    0.2790698,    0.0000000,    0.0000000 ]
  distance:    0.0867828
  band:
  - # 1
    frequency:    1.5032386270
  - # 2
    frequency:    1.5315287258
  - # 3
    frequency:    2.4564815868
  - # 4
    frequency:    2.8287000290
  - # 5
    frequency:    3.2435707523
  - # 6
    frequency:    3.6104766100

- q-position: [    0.2848837,    0.0000000,    0.0000000 ]
  distance:    0.0885908
  band:
  - # 1
    frequency:    1.5315200926
  - # 2
    frequency:    1.5546439571
  - # 3
    frequency:    2.4706225845
  - # 4
    frequency:    2.8719247694
  - # 5
    frequency:    3.2745353799
  - # 6
    frequency:    3.5971002225

- q-position: [    0.2906977,    0.0000000,    0.0000000 ]
  distance:    0.0903988
  band:
  - # 1
    frequency:    1.5595697153
  - # 2
    frequency:    1.5772425623
  - # 3
    frequency:    2.4845685492
  - # 4
    frequency:    2.9142291017
  - # 5
    frequency:    3.3049085573
  - # 6
    frequency:    3.5835637600

- q-position: [    0.2965116,    0.0000000,    0.0000000 ]
  distance:    0.0922067
  band:
  - # 1
    frequency:    1.5873764839
  - # 2
    frequency:    1.5993167843
  - # 3
    frequency:    2.4983043129
  - # 4
    frequency:    2.9555990534
  - # 5
    frequency:    3.3346648579
  - # 6
    frequency:    3.5698777199

- q-position: [    0.3023256,    0.0000000,    0.0000000 ]
  distance:    0.0940147
  band:
  - # 1
    frequency:    1.6149286625
  - # 2
    frequency:    1.6208590351
  - # 3
    frequency:    2.5118151682
  - # 4
    frequency:    2.9960208704
  - # 5
    frequency:    3.3637799757
  - # 6
    frequency:    3.5560533472

- q-position: [    0.3081395,    0.0000000,    0.0000000 ]
  distance:    0.0958227
  band:
  - # 1
    frequency:    1.6418618994
  - # 2
    frequency:    1.6422137209
  - # 3
    frequency:    2.5250868672
  - # 4
    frequency:    3.0354810105
  - # 5
    frequency:    3.3922307011
  - # 6
    frequency:    3.5421027029

- q-position: [    0.3139535,    0.0000000,    0.0000000 ]
  distance:    0.0976307
  band:
  - # 1
    frequency:    1.6623181372
  - # 2
    frequency:    1.6692182578
  - # 3
    frequency:    2.5381056198
  - # 4
    frequency:    3.0739661354
  - # 5
    frequency:    3.4199949008
  - # 6
    frequency:    3.5280387406

- q-position: [    0.3197674,    0.0000000,    0.0000000 ]
  distance:    0.0994386
  band:
  - # 1
    frequency:    1.6822206873
  - # 2
    frequency:    1.6959279170
  - # 3
    frequency:    2.5508580916
  - # 4
    frequency:    3.1114631012
  - # 5
    frequency:    3.4470515009
  - # 6
    frequency:    3.5138753896

- q-position: [    0.3255814,    0.0000000,    0.0000000 ]
  distance:    0.1012466
  band:
  - # 1
    frequency:    1.7015626701
  - # 2
    frequency:    1.7223272942
  - # 3
    frequency:    2.5633314016
  - # 4
    frequency:    3.1479589471
  - # 5
    frequency:    3.4733804741
  - # 6
    frequency:    3.4996276472

- q-position: [    0.3313953,    0.0000000,    0.0000000 ]
  distance:    0.1030546
  band:
  - # 1
    frequency:    1.7203373910
  - # 2
    frequency:    1.7483998361
  - # 3
    frequency:    2.5755131195
  - # 4
    frequency:    3.1834408830
  - # 5
    frequency:    3.4853116792
  - # 6
    frequency:    3.4989628293

- q-position: [    0.3372093,    0.0000000,    0.0000000 ]
  distance:    0.1048626
  band:
  - # 1
    frequency:    1.7385383429
  - # 2
    frequency:    1.7741277291
  - # 3
    frequency:    2.5873912629
  - # 4
    frequency:    3.2178962741
  - # 5
    frequency:    3.4709449303
  - # 6
    frequency:    3.5237806061

- q-position: [    0.3430233,    0.0000000,    0.0000000 ]
  distance:    0.1066705
  band:
  - # 1
    frequency:    1.7561592093
  - # 2
    frequency:    1.7994917790
  - # 3
    frequency:    2.5989542942
  - # 4
    frequency:    3.2513126246
  - # 5
    frequency:    3.4565462440
  - # 6
    frequency:    3.5478168725

- q-position: [    0.3488372,    0.0000000,    0.0000000 ]
  distance:    0.1084785
  band:
  - # 1
    frequency:    1.7731938674
  - # 2
    frequency:    1.8244712799
  - # 3
    frequency:    2.6101911176
  - # 4
    frequency:    3.2836775583
  - # 5
    frequency:    3.4421359932
  - # 6
    frequency:    3.5710557257

- q-position: [    0.3546512,    0.0000000,    0.0000000 ]
  distance:    0.1102865
  band:
  - # 1
    frequency:    1.7896363905
  - # 2
    frequency:    1.8490438736
  - # 3
    frequency:    2.6210910757
  - # 4
    frequency:    3.3149787976
  - # 5
    frequency:    3.4277362201
  - # 6
    frequency:    3.5934822974

- q-position: [    0.3604651,    0.0000000,    0.0000000 ]
  distance:    0.1120945
  band:
  - # 1
    frequency:    1.8054810508
  - # 2
    frequency:    1.8731853986
  - # 3
    frequency:    2.6316439462
  - # 4
    frequency:    3.3452041397
  - # 5
    frequency:    3.4133707864
  - # 6
    frequency:    3.6150827626

- q-position: [    0.3662791,    0.0000000,    0.0000000 ]
  distance:    0.1139024
  band:
  - # 1
    frequency:    1.8207223224
  - # 2
    frequency:    1.8968697307
  - # 3
    frequency:    2.6418399388
  - # 4
    frequency:    3.3743414311
  - # 5
    frequency:    3.3990655329
  - # 6
    frequency:    3.6358443511

- q-position: [    0.3720930,    0.0000000,    0.0000000 ]
  distance:    0.1157104
  band:
  - # 1
    frequency:    1.8353548835
  - # 2
    frequency:    1.9200686156
  - # 3
    frequency:    2.6516696918
  - # 4
    frequency:    3.3848484456
  - # 5
    frequency:    3.4023785391
  - # 6
    frequency:    3.6557553633

- q-position: [    0.3779070,    0.0000000,    0.0000000 ]
  distance:    0.1175184
  band:
  - # 1
    frequency:    1.8493736190
  - # 2
    frequency:    1.9427514972
  - # 3
    frequency:    2.6611242686
  - # 4
    frequency:    3.3707498273
  - # 5
    frequency:    3.4293033225
  - # 6
    frequency:    3.6748051887

- q-position: [    0.3837209,    0.0000000,    0.0000000 ]
  distance:    0.1193264
  band:
  - # 1
    frequency:    1.8627736231
  - # 2
    frequency:    1.9648853438
  - # 3
    frequency:    2.6701951549
  - # 4
    frequency:    3.3568024712
  - # 5
    frequency:    3.4551035997
  - # 6
    frequency:    3.6929843263

- q-position: [    0.3895349,    0.0000000,    0.0000000 ]
  distance:    0.1211343
  band:
  - # 1
    frequency:    1.8755502016
  - # 2
    frequency:    1.9864344786
  - # 3
    frequency:    2.6788742551
  - # 4
    frequency:    3.3430418294
  - # 5
    frequency:    3.4797671170
  - # 6
    frequency:    3.7102844072

- q-position: [    0.3953488,    0.0000000,    0.0000000 ]
  distance:    0.1229423
  band:
  - # 1
    frequency:    1.8876988739
  - # 2
    frequency:    2.0073604204
  - # 3
    frequency:    2.6871538896
  - # 4
    frequency:    3.3295061722
  - # 5
    frequency:    3.5032815164
  - # 6
    frequency:    3.7266982180

- q-position: [    0.4011628,    0.0000000,    0.0000000 ]
  distance:    0.1247503
  band:
  - # 1
    frequency:    1.8992153756
  - # 2
    frequency:    2.0276217449
  - # 3
    frequency:    2.6950267914
  - # 4
    frequency:    3.3162367259
  - # 5
    frequency:    3.5256343056
  - # 6
    frequency:    3.7422197226

- q-position: [    0.4069767,    0.0000000,    0.0000000 ]
  distance:    0.1265583
  band:
  - # 1
    frequency:    1.9100956604
  - # 2
    frequency:    2.0471739779
  - # 3
    frequency:    2.7024861037
  - # 4
    frequency:    3.3032777800
  - # 5
    frequency:    3.5468128315
  - # 6
    frequency:    3.7568440819

- q-position: [    0.4127907,    0.0000000,    0.0000000 ]
  distance:    0.1283662
  band:
  - # 1
    frequency:    1.9203359021
  - # 2
    frequency:    2.0659695349
  - # 3
    frequency:    2.7095253768
  - # 4
    frequency:    3.2906767466
  - # 5
    frequency:    3.5668042592
  - # 6
    frequency:    3.7705676674

- q-position: [    0.4186047,    0.0000000,    0.0000000 ]
  distance:    0.1301742
  band:
  - # 1
    frequency:    1.9299324962
  - # 2
    frequency:    2.0839577271
  - # 3
    frequency:    2.7161385654
  - # 4
    frequency:    3.2784841544
  - # 5
    frequency:    3.5855955611
  - # 6
    frequency:    3.7833880672

- q-position: [    0.4244186,    0.0000000,    0.0000000 ]
  distance:    0.1319822
  band:
  - # 1
    frequency:    1.9388820626
  - # 2
    frequency:    2.1010848528
  - # 3
    frequency:    2.7223200265
  - # 4
    frequency:    3.2667535565
  - # 5
    frequency:    3.6031735185
  - # 6
    frequency:    3.7953040782

- q-position: [    0.4302326,    0.0000000,    0.0000000 ]
  distance:    0.1337902
  band:
  - # 1
    frequency:    1.9471814462
  - # 2
    frequency:    2.1172944010
  - # 3
    frequency:    2.7280645167
  - # 4
    frequency:    3.2555413271
  - # 5
    frequency:    3.6195247404
  - # 6
    frequency:    3.8063156826

- q-position: [    0.4360465,    0.0000000,    0.0000000 ]
  distance:    0.1355981
  band:
  - # 1
    frequency:    1.9548277193
  - # 2
    frequency:    2.1325273908
  - # 3
    frequency:    2.7333671900
  - # 4
    frequency:    3.2449063217
  - # 5
    frequency:    3.6346357062
  - # 6
    frequency:    3.8164240014

- q-position: [    0.4418605,    0.0000000,    0.0000000 ]
  distance:    0.1374061
  band:
  - # 1
    frequency:    1.9618181828
  - # 2
    frequency:    2.1467228731
  - # 3
    frequency:    2.7382235959
  - # 4
    frequency:    3.2349093746
  - # 5
    frequency:    3.6484928348
  - # 6
    frequency:    3.8256312207

- q-position: [    0.4476744,    0.0000000,    0.0000000 ]
  distance:    0.1392141
  band:
  - # 1
    frequency:    1.9681503674
  - # 2
    frequency:    2.1598186188
  - # 3
    frequency:    2.7426296772
  - # 4
    frequency:    3.2256126112
  - # 5
    frequency:    3.6610825874
  - # 6
    frequency:    3.8339404858

- q-position: [    0.4534884,    0.0000000,    0.0000000 ]
  distance:    0.1410221
  band:
  - # 1
    frequency:    1.9738220354
  - # 2
    frequency:    2.1717520064
  - # 3
    frequency:    2.7465817688
  - # 4
    frequency:    3.2170785597
  - # 5
    frequency:    3.6723916076
  - # 6
    frequency:    3.8413557583

- q-position: [    0.4593023,    0.0000000,    0.0000000 ]
  distance:    0.1428300
  band:
  - # 1
    frequency:    1.9788311811
  - # 2
    frequency:    2.1824611170
  - # 3
    frequency:    2.7500765953
  - # 4
    frequency:    3.2093690560
  - # 5
    frequency:    3.6824068997
  - # 6
    frequency:    3.8478816344

- q-position: [    0.4651163,    0.0000000,    0.0000000 ]
  distance:    0.1446380
  band:
  - # 1
    frequency:    1.9831760327
  - # 2
    frequency:    2.1918860235
  - # 3
    frequency:    2.7531112704
  - # 4
    frequency:    3.2025439545
  - # 5
    frequency:    3.6911160469
  - # 6
    frequency:    3.8535231252

- q-position: [    0.4709302,    0.0000000,    0.0000000 ]
  distance:    0.1464460
  band:
  - # 1
    frequency:    1.9868550524
  - # 2
    frequency:    2.1999702420
  - # 3
    frequency:    2.7556832949
  - # 4
    frequency:    3.1966596765
  - # 5
    frequency:    3.6985074626
  - # 6
    frequency:    3.8582854026

- q-position: [    0.4767442,    0.0000000,    0.0000000 ]
  distance:    0.1482540
  band:
  - # 1
    frequency:    1.9898669380
  - # 2
    frequency:    2.2066622904
  - # 3
    frequency:    2.7577905563
  - # 4
    frequency:    3.1917676510
  - # 5
    frequency:    3.7045706662
  - # 6
    frequency:    3.8621735224

- q-position: [    0.4825581,    0.0000000,    0.0000000 ]
  distance:    0.1500619
  band:
  - # 1
    frequency:    1.9922106228
  - # 2
    frequency:    2.2119172755
  - # 3
    frequency:    2.7594313272
  - # 4
    frequency:    3.1879127282
  - # 5
    frequency:    3.7092965701
  - # 6
    frequency:    3.8651921355

- q-position: [    0.4883721,    0.0000000,    0.0000000 ]
  distance:    0.1518699
  band:
  - # 1
    frequency:    1.9938852766
  - # 2
    frequency:    2.2156984085
  - # 3
    frequency:    2.7606042649
  - # 4
    frequency:    3.1851316636
  - # 5
    frequency:    3.7126777569
  - # 6
    frequency:    3.8673452098

- q-position: [    0.4941860,    0.0000000,    0.0000000 ]
  distance:    0.1536779
  band:
  - # 1
    frequency:    1.9948903064
  - # 2
    frequency:    2.2179783419
  - # 3
    frequency:    2.7613084108
  - # 4
    frequency:    3.1834517807
  - # 5
    frequency:    3.7147087278
  - # 6
    frequency:    3.8686357808

- q-position: [    0.5000000,    0.0000000,    0.0000000 ]
  distance:    0.1554859
  band:
  - # 1
    frequency:    1.9952253558
  - # 2
    frequency:    2.2187402183
  - # 3
    frequency:    2.7615431900
  - # 4
    frequency:    3.1828899227
  - # 5
    frequency:    3.7153860989
  - # 6
    frequency:    3.8690657544

- q-position: [    0.5000000,    0.0000000,    0.0000000 ]
  distance:    0.1554859
  band:
  - # 1
    frequency:    1.9952253558
  - # 2
    frequency:    2.2187402183
  - # 3
    frequency:    2.7615431900
  - # 4
    frequency:    3.1828899227
  - # 5
    frequency:    3.7153860989
  - # 6
    frequency:    3.8690657544

- q-position: [    0.4966667,    0.0066667,    0.0000000 ]
  distance:    0.1572813
  band:
  - # 1