# Tetrahedron method
       -0.3992660988        0.0000000000
       -0.3753101476        0.0000000000
       -0.3513541964        0.0000000000
       -0.3273982452        0.0000000000
       -0.3034422940        0.0000000000
       -0.2794863428        0.0000000000
       -0.2555303916        0.0000000000
       -0.2315744404        0.0000000000
       -0.2076184892        0.0000000000
       -0.1836625380        0.0000000000
       -0.1597065868        0.0000000000
       -0.1357506356        0.0000000000
       -0.1117946844        0.0000000000
       -0.0878387332        0.0000000000
       -0.0638827820        0.0000000000
       -0.0399268308        0.0000000000
       -0.0159708796        0.0000000000
        0.0079850716        0.0000094728
        0.0319410228        0.0001483749
        0.0558969740        0.0004446260
        0.0798529252        0.0008874565
        0.1038088764        0.0014660968
        0.1277648276        0.0021697771
        0.1517207787        0.0029877279
        0.1756767299        0.0039091795
        0.1996326811        0.0067052841
        0.2235886323        0.0098992019
        0.2475445835        0.0128762771
        0.2715005347        0.0155742242
        0.2954564859        0.0185725877
        0.3194124371        0.0218290426
        0.3433683883        0.0258108477
        0.3673243395        0.0302899961
        0.3912802907        0.0358205724
        0.4152362419        0.0412758819
        0.4391921931        0.0472397039
        0.4631481443        0.0527567960
        0.4871040955        0.0578653773
        0.5110600467        0.0637165122
        0.5350159979        0.0702803830
        0.5589719491        0.0775646188
        0.5829279003        0.0852454066
        0.6068838515        0.0926494598
        0.6308398027        0.1003028435
        0.6547957539        0.1083956679
        0.6787517051        0.1168449665
        0.7027076563        0.1260083428
        0.7266636075        0.1355127724
        0.7506195587        0.1451244458
        0.7745755099        0.1552989628
        0.7985314611        0.1660654177
        0.8224874122        0.1776009131
        0.8464433634        0.1894718568
        0.8703993146        0.2013379512
        0.8943552658        0.2135657150
        0.9183112170        0.2264139910
        0.9422671682        0.2399658799
        0.9662231194        0.2542512956
        0.9901790706        0.2691270456
        1.0141350218        0.2842844994
        1.0380909730        0.2995903361
        1.0620469242        0.3156638174
        1.0860028754        0.3332182958
        1.1099588266        0.3516661871
        1.1339147778        0.3702475937
        1.1578707290        0.3894191070
        1.1818266802        0.4083925986
        1.2057826314        0.4280837365
        1.2297385826        0.4486226984
        1.2536945338        0.4716229409
        1.2776504850        0.4962553894
        1.3016064362        0.5224516808
        1.3255623874        0.5491554956
        1.3495183386        0.5768312696
        1.3734742898        0.6058748416
        1.3974302410        0.6326033486
        1.4213861922        0.6583493270
        1.4453421434        0.6869166280
        1.4692980946        0.7200920200
        1.4932540458        0.7520344968
        1.5172099969        0.7880600765
        1.5411659481        0.8280555632
        1.5651218993        0.8706741113
        1.5890778505        0.9208149266
        1.6130338017        0.9653133430
        1.6369897529        1.0152615140
        1.6609457041        1.0691310875
        1.6849016553        1.1278021378
        1.7088576065        1.1857950653
        1.7328135577        1.2324472680
        1.7567695089        1.2817277100
        1.7807254601        1.3369234415
        1.8046814113        1.4079626141
        1.8286373625        1.4963224642
        1.8525933137        1.5818079350
        1.8765492649        1.6890529356
        1.9005052161        1.8036824443
        1.9244611673        1.9512440659
        1.9484171185        2.1246179691
        1.9723730697        2.2323910370
        1.9963290209        2.4268538502
        2.0202849721        2.5516441793
        2.0442409233        2.6576340581
        2.0681968745        2.7787688741
        2.0921528257        2.9040658320
        2.1161087769        3.0809303158
        2.1400647281        3.2711189565
        2.1640206793        3.5042537705
        2.1879766304        3.6524523655
        2.2119325816        3.9282237370
        2.2358885328        3.8928276456
        2.2598444840        3.8158800978
        2.2838004352        3.4456133762
        2.3077563864        3.2543820837
        2.3317123376        3.0702259406
        2.3556682888        2.9438464223
        2.3796242400        2.8465349701
        2.4035801912        2.6711164312
        2.4275361424        2.4790335499
        2.4514920936        2.4860375254
        2.4754480448        2.5930391385
        2.4994039960        2.5008317295
        2.5233599472        2.5453384668
        2.5473158984        2.5702971288
        2.5712718496        2.5058929346
        2.5952278008        2.5023959450
        2.6191837520        2.5823751157
        2.6431397032        2.5293825037
        2.6670956544        2.5198560109
        2.6910516056        2.6326088851
        2.7150075568        2.6208754393
        2.7389635080        2.6043307217
        2.7629194592        2.6094328962
        2.7868754104        2.4443640980
        2.8108313616        2.3116365046
        2.8347873128        2.3108971891
        2.8587432639        2.2695093060
        2.8826992151        2.2203699764
        2.9066551663        2.2212549601
        2.9306111175        2.3010089701
        2.9545670687        2.3625985781
        2.9785230199        2.2558718715
        3.0024789711        2.1402549754
        3.0264349223        2.1413817077
        3.0503908735        1.9163858857
        3.0743468247        1.9780372959
        3.0983027759        2.3432962196
        3.1222587271        2.7060085718
        3.1462146783        2.2784173105
        3.1701706295        2.1406636515
        3.1941265807        1.9330722542
        3.2180825319        1.8515807051
        3.2420384831        1.7246497224
        3.2659944343        1.6416480371
        3.2899503855        1.5679913117
        3.3139063367        1.5204945184
        3.3378622879        1.3530151964
        3.3618182391        1.2611274940
        3.3857741903        1.3605624793
        3.4097301415        1.3731726486
        3.4336860927        1.3270814149
        3.4576420439        1.3702683483
        3.4815979951        1.5782435035
        3.5055539463        1.9887807204
        3.5295098975        2.4417229912
        3.5534658486        2.8012200658
        3.5774217998        3.6323102350
        3.6013777510        4.2975682788
        3.6253337022        3.9656613959
        3.6492896534        3.7974416292
        3.6732456046        3.9072788606
        3.6972015558        3.9749391380
        3.7211575070        3.8922824136
        3.7451134582        3.5464315814
        3.7690694094        3.0451685895
        3.7930253606        2.7572680582
        3.8169813118        2.5286997305
        3.8409372630        2.3330850270
        3.8648932142        2.1724373997
        3.8888491654        1.7497484200
        3.9128051166        1.4392611564
        3.9367610678        1.1258784566
        3.9607170190        0.7395764317
        3.9846729702        0.3521541183
        4.0086289214        0.0000000000
        4.0325848726        0.0000000000
        4.0565408238        0.0000000000
        4.0804967750        0.0000000000
        4.1044527262        0.0000000000
        4.1284086774        0.0000000000
        4.1523646286        0.0000000000
        4.1763205798        0.0000000000
        4.2002765310        0.0000000000
        4.2242324821        0.0000000000
        4.2481884333        0.0000000000
        4.2721443845        0.0000000000
        4.2961003357        0.0000000000
        4.3200562869        0.0000000000
        4.3440122381        0.0000000000
        4.3679681893        0.0000000000
        4.3919241405        0.0000000000
