phonopy:
  version: "2.45.1"
  frequency_unit_conversion_factor: 15.633302
  symmetry_tolerance: 1.00000e-05

space_group:
  type: "Fm-3m"
  number: 225
  Hall_symbol: "-F 4 2 3"

primitive_matrix:
- [  0.000000000000000,  1.000000000000000,  0.000000000000000 ]
- [  0.000000000000000,  0.000000000000000,  1.000000000000000 ]
- [  1.000000000000000,  0.000000000000000,  0.000000000000000 ]

supercell_matrix:
- [   3,   0,   0 ]
- [   0,   3,   0 ]
- [   0,   0,   3 ]

primitive_cell:
  lattice:
  - [     0.000000000000000,     0.000000000000000,     5.224870197127650 ] # a
  - [     4.524871005309199,    -0.000000009966555,     2.612435601874847 ] # b
  - [     1.508288989618150,     4.266089496143613,     2.612435601874847 ] # c
  points:
  - symbol: K # 1
    coordinates: [  0.750000000000000,  0.750000000000000,  0.750000000000000 ]
    mass: 39.098300
  - symbol: K # 2
    coordinates: [  0.250000000000000,  0.250000000000000,  0.250000000000000 ]
    mass: 39.098300
  - symbol: S # 3
    coordinates: [  0.000000000000000,  0.000000000000000,  0.000000000000000 ]
    mass: 32.065000
  reciprocal_lattice: # without 2pi
  - [    -0.110500409077283,    -0.078135619581262,     0.191392314501850 ] # a*
  - [     0.221000775060310,    -0.078135499975297,     0.000000000000000 ] # b*
  - [     0.000000000516308,     0.234406709030652,     0.000000000000000 ] # c*

unit_cell:
  lattice:
  - [     4.524871005309199,    -0.000000009966555,     2.612435601874847 ] # a
  - [     1.508288989618150,     4.266089496143612,     2.612435601874847 ] # b
  - [     0.000000000000000,     0.000000000000000,     5.224870197127648 ] # c
  points:
  - symbol: K # 1
    coordinates: [  0.750000000000000,  0.750000000000000,  0.750000000000000 ]
    mass: 39.098300
    reduced_to: 1
  - symbol: K # 2
    coordinates: [  0.250000000000000,  0.250000000000000,  0.250000000000000 ]
    mass: 39.098300
    reduced_to: 2
  - symbol: S # 3
    coordinates: [  0.000000000000000,  0.000000000000000,  0.000000000000000 ]
    mass: 32.065000
    reduced_to: 3

supercell:
  lattice:
  - [    13.574613015927596,    -0.000000029899665,     7.837306805624541 ] # a
  - [     4.524866968854450,    12.798268488430837,     7.837306805624541 ] # b
  - [     0.000000000000000,     0.000000000000000,    15.674610591382944 ] # c
  points:
  - symbol: K # 1
    coordinates: [  0.250000000000000,  0.250000000000000,  0.250000000000000 ]
    mass: 39.098300
    reduced_to: 1
  - symbol: K # 2
    coordinates: [  0.583333333333333,  0.250000000000000,  0.250000000000000 ]
    mass: 39.098300
    reduced_to: 1
  - symbol: K # 3
    coordinates: [  0.916666666666667,  0.250000000000000,  0.250000000000000 ]
    mass: 39.098300
    reduced_to: 1
  - symbol: K # 4
    coordinates: [  0.250000000000000,  0.583333333333333,  0.250000000000000 ]
    mass: 39.098300
    reduced_to: 1
  - symbol: K # 5
    coordinates: [  0.583333333333333,  0.583333333333333,  0.250000000000000 ]
    mass: 39.098300
    reduced_to: 1
  - symbol: K # 6
    coordinates: [  0.916666666666667,  0.583333333333333,  0.250000000000000 ]
    mass: 39.098300
    reduced_to: 1
  - symbol: K # 7
    coordinates: [  0.250000000000000,  0.916666666666667,  0.250000000000000 ]
    mass: 39.098300
    reduced_to: 1
  - symbol: K # 8
    coordinates: [  0.583333333333333,  0.916666666666667,  0.250000000000000 ]
    mass: 39.098300
    reduced_to: 1
  - symbol: K # 9
    coordinates: [  0.916666666666667,  0.916666666666667,  0.250000000000000 ]
    mass: 39.098300
    reduced_to: 1
  - symbol: K # 10
    coordinates: [  0.250000000000000,  0.250000000000000,  0.583333333333333 ]
    mass: 39.098300
    reduced_to: 1
  - symbol: K # 11
    coordinates: [  0.583333333333333,  0.250000000000000,  0.583333333333333 ]
    mass: 39.098300
    reduced_to: 1
  - symbol: K # 12
    coordinates: [  0.916666666666667,  0.250000000000000,  0.583333333333333 ]
    mass: 39.098300
    reduced_to: 1
  - symbol: K # 13
    coordinates: [  0.250000000000000,  0.583333333333333,  0.583333333333333 ]
    mass: 39.098300
    reduced_to: 1
  - symbol: K # 14
    coordinates: [  0.583333333333333,  0.583333333333333,  0.583333333333333 ]
    mass: 39.098300
    reduced_to: 1
  - symbol: K # 15
    coordinates: [  0.916666666666667,  0.583333333333333,  0.583333333333333 ]
    mass: 39.098300
    reduced_to: 1
  - symbol: K # 16
    coordinates: [  0.250000000000000,  0.916666666666667,  0.583333333333333 ]
    mass: 39.098300
    reduced_to: 1
  - symbol: K # 17
    coordinates: [  0.583333333333333,  0.916666666666667,  0.583333333333333 ]
    mass: 39.098300
    reduced_to: 1
  - symbol: K # 18
    coordinates: [  0.916666666666667,  0.916666666666667,  0.583333333333333 ]
    mass: 39.098300
    reduced_to: 1
  - symbol: K # 19
    coordinates: [  0.250000000000000,  0.250000000000000,  0.916666666666667 ]
    mass: 39.098300
    reduced_to: 1
  - symbol: K # 20
    coordinates: [  0.583333333333333,  0.250000000000000,  0.916666666666667 ]
    mass: 39.098300
    reduced_to: 1
  - symbol: K # 21
    coordinates: [  0.916666666666667,  0.250000000000000,  0.916666666666667 ]
    mass: 39.098300
    reduced_to: 1
  - symbol: K # 22
    coordinates: [  0.250000000000000,  0.583333333333333,  0.916666666666667 ]
    mass: 39.098300
    reduced_to: 1
  - symbol: K # 23
    coordinates: [  0.583333333333333,  0.583333333333333,  0.916666666666667 ]
    mass: 39.098300
    reduced_to: 1
  - symbol: K # 24
    coordinates: [  0.916666666666667,  0.583333333333333,  0.916666666666667 ]
    mass: 39.098300
    reduced_to: 1
  - symbol: K # 25
    coordinates: [  0.250000000000000,  0.916666666666667,  0.916666666666667 ]
    mass: 39.098300
    reduced_to: 1
  - symbol: K # 26
    coordinates: [  0.583333333333333,  0.916666666666667,  0.916666666666667 ]
    mass: 39.098300
    reduced_to: 1
  - symbol: K # 27
    coordinates: [  0.916666666666667,  0.916666666666667,  0.916666666666667 ]
    mass: 39.098300
    reduced_to: 1
  - symbol: K # 28
    coordinates: [  0.083333333333333,  0.083333333333333,  0.083333333333333 ]
    mass: 39.098300
    reduced_to: 28
  - symbol: K # 29
    coordinates: [  0.416666666666667,  0.083333333333333,  0.083333333333333 ]
    mass: 39.098300
    reduced_to: 28
  - symbol: K # 30
    coordinates: [  0.750000000000000,  0.083333333333333,  0.083333333333333 ]
    mass: 39.098300
    reduced_to: 28
  - symbol: K # 31
    coordinates: [  0.083333333333333,  0.416666666666667,  0.083333333333333 ]
    mass: 39.098300
    reduced_to: 28
  - symbol: K # 32
    coordinates: [  0.416666666666667,  0.416666666666667,  0.083333333333333 ]
    mass: 39.098300
    reduced_to: 28
  - symbol: K # 33
    coordinates: [  0.750000000000000,  0.416666666666667,  0.083333333333333 ]
    mass: 39.098300
    reduced_to: 28
  - symbol: K # 34
    coordinates: [  0.083333333333333,  0.750000000000000,  0.083333333333333 ]
    mass: 39.098300
    reduced_to: 28
  - symbol: K # 35
    coordinates: [  0.416666666666667,  0.750000000000000,  0.083333333333333 ]
    mass: 39.098300
    reduced_to: 28
  - symbol: K # 36
    coordinates: [  0.750000000000000,  0.750000000000000,  0.083333333333333 ]
    mass: 39.098300
    reduced_to: 28
  - symbol: K # 37
    coordinates: [  0.083333333333333,  0.083333333333333,  0.416666666666667 ]
    mass: 39.098300
    reduced_to: 28
  - symbol: K # 38
    coordinates: [  0.416666666666667,  0.083333333333333,  0.416666666666667 ]
    mass: 39.098300
    reduced_to: 28
  - symbol: K # 39
    coordinates: [  0.750000000000000,  0.083333333333333,  0.416666666666667 ]
    mass: 39.098300
    reduced_to: 28
  - symbol: K # 40
    coordinates: [  0.083333333333333,  0.416666666666667,  0.416666666666667 ]
    mass: 39.098300
    reduced_to: 28
  - symbol: K # 41
    coordinates: [  0.416666666666667,  0.416666666666667,  0.416666666666667 ]
    mass: 39.098300
    reduced_to: 28
  - symbol: K # 42
    coordinates: [  0.750000000000000,  0.416666666666667,  0.416666666666667 ]
    mass: 39.098300
    reduced_to: 28
  - symbol: K # 43
    coordinates: [  0.083333333333333,  0.750000000000000,  0.416666666666667 ]
    mass: 39.098300
    reduced_to: 28
  - symbol: K # 44
    coordinates: [  0.416666666666667,  0.750000000000000,  0.416666666666667 ]
    mass: 39.098300
    reduced_to: 28
  - symbol: K # 45
    coordinates: [  0.750000000000000,  0.750000000000000,  0.416666666666667 ]
    mass: 39.098300
    reduced_to: 28
  - symbol: K # 46
    coordinates: [  0.083333333333333,  0.083333333333333,  0.750000000000000 ]
    mass: 39.098300
    reduced_to: 28
  - symbol: K # 47
    coordinates: [  0.416666666666667,  0.083333333333333,  0.750000000000000 ]
    mass: 39.098300
    reduced_to: 28
  - symbol: K # 48
    coordinates: [  0.750000000000000,  0.083333333333333,  0.750000000000000 ]
    mass: 39.098300
    reduced_to: 28
  - symbol: K # 49
    coordinates: [  0.083333333333333,  0.416666666666667,  0.750000000000000 ]
    mass: 39.098300
    reduced_to: 28
  - symbol: K # 50
    coordinates: [  0.416666666666667,  0.416666666666667,  0.750000000000000 ]
    mass: 39.098300
    reduced_to: 28
  - symbol: K # 51
    coordinates: [  0.750000000000000,  0.416666666666667,  0.750000000000000 ]
    mass: 39.098300
    reduced_to: 28
  - symbol: K # 52
    coordinates: [  0.083333333333333,  0.750000000000000,  0.750000000000000 ]
    mass: 39.098300
    reduced_to: 28
  - symbol: K # 53
    coordinates: [  0.416666666666667,  0.750000000000000,  0.750000000000000 ]
    mass: 39.098300
    reduced_to: 28
  - symbol: K # 54
    coordinates: [  0.750000000000000,  0.750000000000000,  0.750000000000000 ]
    mass: 39.098300
    reduced_to: 28
  - symbol: S # 55
    coordinates: [  0.000000000000000,  0.000000000000000,  0.000000000000000 ]
    mass: 32.065000
    reduced_to: 55
  - symbol: S # 56
    coordinates: [  0.333333333333333,  0.000000000000000,  0.000000000000000 ]
    mass: 32.065000
    reduced_to: 55
  - symbol: S # 57
    coordinates: [  0.666666666666667,  0.000000000000000,  0.000000000000000 ]
    mass: 32.065000
    reduced_to: 55
  - symbol: S # 58
    coordinates: [  0.000000000000000,  0.333333333333333,  0.000000000000000 ]
    mass: 32.065000
    reduced_to: 55
  - symbol: S # 59
    coordinates: [  0.333333333333333,  0.333333333333333,  0.000000000000000 ]
    mass: 32.065000
    reduced_to: 55
  - symbol: S # 60
    coordinates: [  0.666666666666667,  0.333333333333333,  0.000000000000000 ]
    mass: 32.065000
    reduced_to: 55
  - symbol: S # 61
    coordinates: [  0.000000000000000,  0.666666666666667,  0.000000000000000 ]
    mass: 32.065000
    reduced_to: 55
  - symbol: S # 62
    coordinates: [  0.333333333333333,  0.666666666666667,  0.000000000000000 ]
    mass: 32.065000
    reduced_to: 55
  - symbol: S # 63
    coordinates: [  0.666666666666667,  0.666666666666667,  0.000000000000000 ]
    mass: 32.065000
    reduced_to: 55
  - symbol: S # 64
    coordinates: [  0.000000000000000,  0.000000000000000,  0.333333333333333 ]
    mass: 32.065000
    reduced_to: 55
  - symbol: S # 65
    coordinates: [  0.333333333333333,  0.000000000000000,  0.333333333333333 ]
    mass: 32.065000
    reduced_to: 55
  - symbol: S # 66
    coordinates: [  0.666666666666667,  0.000000000000000,  0.333333333333333 ]
    mass: 32.065000
    reduced_to: 55
  - symbol: S # 67
    coordinates: [  0.000000000000000,  0.333333333333333,  0.333333333333333 ]
    mass: 32.065000
    reduced_to: 55
  - symbol: S # 68
    coordinates: [  0.333333333333333,  0.333333333333333,  0.333333333333333 ]
    mass: 32.065000
    reduced_to: 55
  - symbol: S # 69
    coordinates: [  0.666666666666667,  0.333333333333333,  0.333333333333333 ]
    mass: 32.065000
    reduced_to: 55
  - symbol: S # 70
    coordinates: [  0.000000000000000,  0.666666666666667,  0.333333333333333 ]
    mass: 32.065000
    reduced_to: 55
  - symbol: S # 71
    coordinates: [  0.333333333333333,  0.666666666666667,  0.333333333333333 ]
    mass: 32.065000
    reduced_to: 55
  - symbol: S # 72
    coordinates: [  0.666666666666667,  0.666666666666667,  0.333333333333333 ]
    mass: 32.065000
    reduced_to: 55
  - symbol: S # 73
    coordinates: [  0.000000000000000,  0.000000000000000,  0.666666666666667 ]
    mass: 32.065000
    reduced_to: 55
  - symbol: S # 74
    coordinates: [  0.333333333333333,  0.000000000000000,  0.666666666666667 ]
    mass: 32.065000
    reduced_to: 55
  - symbol: S # 75
    coordinates: [  0.666666666666667,  0.000000000000000,  0.666666666666667 ]
    mass: 32.065000
    reduced_to: 55
  - symbol: S # 76
    coordinates: [  0.000000000000000,  0.333333333333333,  0.666666666666667 ]
    mass: 32.065000
    reduced_to: 55
  - symbol: S # 77
    coordinates: [  0.333333333333333,  0.333333333333333,  0.666666666666667 ]
    mass: 32.065000
    reduced_to: 55
  - symbol: S # 78
    coordinates: [  0.666666666666667,  0.333333333333333,  0.666666666666667 ]
    mass: 32.065000
    reduced_to: 55
  - symbol: S # 79
    coordinates: [  0.000000000000000,  0.666666666666667,  0.666666666666667 ]
    mass: 32.065000
    reduced_to: 55
  - symbol: S # 80
    coordinates: [  0.333333333333333,  0.666666666666667,  0.666666666666667 ]
    mass: 32.065000
    reduced_to: 55
  - symbol: S # 81
    coordinates: [  0.666666666666667,  0.666666666666667,  0.666666666666667 ]
    mass: 32.065000
    reduced_to: 55

displacements:
- atom:    1
  displacement:
    [   0.0086602539475839, -0.0000000000190752,  0.0050000001563358 ]
- atom:   55
  displacement:
    [   0.0086602539475839, -0.0000000000190752,  0.0050000001563358 ]
