phonopy:
  version: "2.45.1"
  frequency_unit_conversion_factor: 15.633302
  symmetry_tolerance: 1.00000e-05

space_group:
  type: "Fm-3m"
  number: 225
  Hall_symbol: "-F 4 2 3"

primitive_matrix:
- [  0.000000000000000,  1.000000000000000,  0.000000000000000 ]
- [  0.000000000000000,  0.000000000000000,  1.000000000000000 ]
- [  1.000000000000000,  0.000000000000000,  0.000000000000000 ]

supercell_matrix:
- [   3,   0,   0 ]
- [   0,   3,   0 ]
- [   0,   0,   3 ]

primitive_cell:
  lattice:
  - [     0.000000000000000,     0.000000000000000,     5.224870197127648 ] # a
  - [     4.524871005309199,    -0.000000009966555,     2.612435601874847 ] # b
  - [     1.508288989618150,     4.266089496143612,     2.612435601874847 ] # c
  points:
  - symbol: K # 1
    coordinates: [  0.750000000000000,  0.750000000000000,  0.750000000000000 ]
    mass: 39.098300
  - symbol: K # 2
    coordinates: [  0.250000000000000,  0.250000000000000,  0.250000000000000 ]
    mass: 39.098300
  - symbol: S # 3
    coordinates: [  0.000000000000000,  0.000000000000000,  0.000000000000000 ]
    mass: 32.065000
  reciprocal_lattice: # without 2pi
  - [    -0.110500409077283,    -0.078135619581262,     0.191392314501850 ] # a*
  - [     0.221000775060310,    -0.078135499975297,     0.000000000000000 ] # b*
  - [     0.000000000516308,     0.234406709030652,     0.000000000000000 ] # c*

unit_cell:
  lattice:
  - [     4.524871005309199,    -0.000000009966555,     2.612435601874847 ] # a
  - [     1.508288989618150,     4.266089496143612,     2.612435601874847 ] # b
  - [     0.000000000000000,     0.000000000000000,     5.224870197127648 ] # c
  points:
  - symbol: K # 1
    coordinates: [  0.750000000000000,  0.750000000000000,  0.750000000000000 ]
    mass: 39.098300
    reduced_to: 1
  - symbol: K # 2
    coordinates: [  0.250000000000000,  0.250000000000000,  0.250000000000000 ]
    mass: 39.098300
    reduced_to: 2
  - symbol: S # 3
    coordinates: [  0.000000000000000,  0.000000000000000,  0.000000000000000 ]
    mass: 32.065000
    reduced_to: 3

supercell:
  lattice:
  - [    13.574613015927598,    -0.000000029899665,     7.837306805624541 ] # a
  - [     4.524866968854450,    12.798268488430837,     7.837306805624541 ] # b
  - [     0.000000000000000,     0.000000000000000,    15.674610591382944 ] # c
  points:
  - symbol: K # 1
    coordinates: [  0.250000000000000,  0.250000000000000,  0.250000000000000 ]
    mass: 39.098300
    reduced_to: 1
  - symbol: K # 2
    coordinates: [  0.583333333333333,  0.250000000000000,  0.250000000000000 ]
    mass: 39.098300
    reduced_to: 1
  - symbol: K # 3
    coordinates: [  0.916666666666667,  0.250000000000000,  0.250000000000000 ]
    mass: 39.098300
    reduced_to: 1
  - symbol: K # 4
    coordinates: [  0.250000000000000,  0.583333333333333,  0.250000000000000 ]
    mass: 39.098300
    reduced_to: 1
  - symbol: K # 5
    coordinates: [  0.583333333333333,  0.583333333333333,  0.250000000000000 ]
    mass: 39.098300
    reduced_to: 1
  - symbol: K # 6
    coordinates: [  0.916666666666667,  0.583333333333333,  0.250000000000000 ]
    mass: 39.098300
    reduced_to: 1
  - symbol: K # 7
    coordinates: [  0.250000000000000,  0.916666666666667,  0.250000000000000 ]
    mass: 39.098300
    reduced_to: 1
  - symbol: K # 8
    coordinates: [  0.583333333333333,  0.916666666666667,  0.250000000000000 ]
    mass: 39.098300
    reduced_to: 1
  - symbol: K # 9
    coordinates: [  0.916666666666667,  0.916666666666667,  0.250000000000000 ]
    mass: 39.098300
    reduced_to: 1
  - symbol: K # 10
    coordinates: [  0.250000000000000,  0.250000000000000,  0.583333333333333 ]
    mass: 39.098300
    reduced_to: 1
  - symbol: K # 11
    coordinates: [  0.583333333333333,  0.250000000000000,  0.583333333333333 ]
    mass: 39.098300
    reduced_to: 1
  - symbol: K # 12
    coordinates: [  0.916666666666667,  0.250000000000000,  0.583333333333333 ]
    mass: 39.098300
    reduced_to: 1
  - symbol: K # 13
    coordinates: [  0.250000000000000,  0.583333333333333,  0.583333333333333 ]
    mass: 39.098300
    reduced_to: 1
  - symbol: K # 14
    coordinates: [  0.583333333333333,  0.583333333333333,  0.583333333333333 ]
    mass: 39.098300
    reduced_to: 1
  - symbol: K # 15
    coordinates: [  0.916666666666667,  0.583333333333333,  0.583333333333333 ]
    mass: 39.098300
    reduced_to: 1
  - symbol: K # 16
    coordinates: [  0.250000000000000,  0.916666666666667,  0.583333333333333 ]
    mass: 39.098300
    reduced_to: 1
  - symbol: K # 17
    coordinates: [  0.583333333333333,  0.916666666666667,  0.583333333333333 ]
    mass: 39.098300
    reduced_to: 1
  - symbol: K # 18
    coordinates: [  0.916666666666667,  0.916666666666667,  0.583333333333333 ]
    mass: 39.098300
    reduced_to: 1
  - symbol: K # 19
    coordinates: [  0.250000000000000,  0.250000000000000,  0.916666666666667 ]
    mass: 39.098300
    reduced_to: 1
  - symbol: K # 20
    coordinates: [  0.583333333333333,  0.250000000000000,  0.916666666666667 ]
    mass: 39.098300
    reduced_to: 1
  - symbol: K # 21
    coordinates: [  0.916666666666667,  0.250000000000000,  0.916666666666667 ]
    mass: 39.098300
    reduced_to: 1
  - symbol: K # 22
    coordinates: [  0.250000000000000,  0.583333333333333,  0.916666666666667 ]
    mass: 39.098300
    reduced_to: 1
  - symbol: K # 23
    coordinates: [  0.583333333333333,  0.583333333333333,  0.916666666666667 ]
    mass: 39.098300
    reduced_to: 1
  - symbol: K # 24
    coordinates: [  0.916666666666667,  0.583333333333333,  0.916666666666667 ]
    mass: 39.098300
    reduced_to: 1
  - symbol: K # 25
    coordinates: [  0.250000000000000,  0.916666666666667,  0.916666666666667 ]
    mass: 39.098300
    reduced_to: 1
  - symbol: K # 26
    coordinates: [  0.583333333333333,  0.916666666666667,  0.916666666666667 ]
    mass: 39.098300
    reduced_to: 1
  - symbol: K # 27
    coordinates: [  0.916666666666667,  0.916666666666667,  0.916666666666667 ]
    mass: 39.098300
    reduced_to: 1
  - symbol: K # 28
    coordinates: [  0.083333333333333,  0.083333333333333,  0.083333333333333 ]
    mass: 39.098300
    reduced_to: 28
  - symbol: K # 29
    coordinates: [  0.416666666666667,  0.083333333333333,  0.083333333333333 ]
    mass: 39.098300
    reduced_to: 28
  - symbol: K # 30
    coordinates: [  0.750000000000000,  0.083333333333333,  0.083333333333333 ]
    mass: 39.098300
    reduced_to: 28
  - symbol: K # 31
    coordinates: [  0.083333333333333,  0.416666666666667,  0.083333333333333 ]
    mass: 39.098300
    reduced_to: 28
  - symbol: K # 32
    coordinates: [  0.416666666666667,  0.416666666666667,  0.083333333333333 ]
    mass: 39.098300
    reduced_to: 28
  - symbol: K # 33
    coordinates: [  0.750000000000000,  0.416666666666667,  0.083333333333333 ]
    mass: 39.098300
    reduced_to: 28
  - symbol: K # 34
    coordinates: [  0.083333333333333,  0.750000000000000,  0.083333333333333 ]
    mass: 39.098300
    reduced_to: 28
  - symbol: K # 35
    coordinates: [  0.416666666666667,  0.750000000000000,  0.083333333333333 ]
    mass: 39.098300
    reduced_to: 28
  - symbol: K # 36
    coordinates: [  0.750000000000000,  0.750000000000000,  0.083333333333333 ]
    mass: 39.098300
    reduced_to: 28
  - symbol: K # 37
    coordinates: [  0.083333333333333,  0.083333333333333,  0.416666666666667 ]
    mass: 39.098300
    reduced_to: 28
  - symbol: K # 38
    coordinates: [  0.416666666666667,  0.083333333333333,  0.416666666666667 ]
    mass: 39.098300
    reduced_to: 28
  - symbol: K # 39
    coordinates: [  0.750000000000000,  0.083333333333333,  0.416666666666667 ]
    mass: 39.098300
    reduced_to: 28
  - symbol: K # 40
    coordinates: [  0.083333333333333,  0.416666666666667,  0.416666666666667 ]
    mass: 39.098300
    reduced_to: 28
  - symbol: K # 41
    coordinates: [  0.416666666666667,  0.416666666666667,  0.416666666666667 ]
    mass: 39.098300
    reduced_to: 28
  - symbol: K # 42
    coordinates: [  0.750000000000000,  0.416666666666667,  0.416666666666667 ]
    mass: 39.098300
    reduced_to: 28
  - symbol: K # 43
    coordinates: [  0.083333333333333,  0.750000000000000,  0.416666666666667 ]
    mass: 39.098300
    reduced_to: 28
  - symbol: K # 44
    coordinates: [  0.416666666666667,  0.750000000000000,  0.416666666666667 ]
    mass: 39.098300
    reduced_to: 28
  - symbol: K # 45
    coordinates: [  0.750000000000000,  0.750000000000000,  0.416666666666667 ]
    mass: 39.098300
    reduced_to: 28
  - symbol: K # 46
    coordinates: [  0.083333333333333,  0.083333333333333,  0.750000000000000 ]
    mass: 39.098300
    reduced_to: 28
  - symbol: K # 47
    coordinates: [  0.416666666666667,  0.083333333333333,  0.750000000000000 ]
    mass: 39.098300
    reduced_to: 28
  - symbol: K # 48
    coordinates: [  0.750000000000000,  0.083333333333333,  0.750000000000000 ]
    mass: 39.098300
    reduced_to: 28
  - symbol: K # 49
    coordinates: [  0.083333333333333,  0.416666666666667,  0.750000000000000 ]
    mass: 39.098300
    reduced_to: 28
  - symbol: K # 50
    coordinates: [  0.416666666666667,  0.416666666666667,  0.750000000000000 ]
    mass: 39.098300
    reduced_to: 28
  - symbol: K # 51
    coordinates: [  0.750000000000000,  0.416666666666667,  0.750000000000000 ]
    mass: 39.098300
    reduced_to: 28
  - symbol: K # 52
    coordinates: [  0.083333333333333,  0.750000000000000,  0.750000000000000 ]
    mass: 39.098300
    reduced_to: 28
  - symbol: K # 53
    coordinates: [  0.416666666666667,  0.750000000000000,  0.750000000000000 ]
    mass: 39.098300
    reduced_to: 28
  - symbol: K # 54
    coordinates: [  0.750000000000000,  0.750000000000000,  0.750000000000000 ]
    mass: 39.098300
    reduced_to: 28
  - symbol: S # 55
    coordinates: [  0.000000000000000,  0.000000000000000,  0.000000000000000 ]
    mass: 32.065000
    reduced_to: 55
  - symbol: S # 56
    coordinates: [  0.333333333333333,  0.000000000000000,  0.000000000000000 ]
    mass: 32.065000
    reduced_to: 55
  - symbol: S # 57
    coordinates: [  0.666666666666667,  0.000000000000000,  0.000000000000000 ]
    mass: 32.065000
    reduced_to: 55
  - symbol: S # 58
    coordinates: [  0.000000000000000,  0.333333333333333,  0.000000000000000 ]
    mass: 32.065000
    reduced_to: 55
  - symbol: S # 59
    coordinates: [  0.333333333333333,  0.333333333333333,  0.000000000000000 ]
    mass: 32.065000
    reduced_to: 55
  - symbol: S # 60
    coordinates: [  0.666666666666667,  0.333333333333333,  0.000000000000000 ]
    mass: 32.065000
    reduced_to: 55
  - symbol: S # 61
    coordinates: [  0.000000000000000,  0.666666666666667,  0.000000000000000 ]
    mass: 32.065000
    reduced_to: 55
  - symbol: S # 62
    coordinates: [  0.333333333333333,  0.666666666666667,  0.000000000000000 ]
    mass: 32.065000
    reduced_to: 55
  - symbol: S # 63
    coordinates: [  0.666666666666667,  0.666666666666667,  0.000000000000000 ]
    mass: 32.065000
    reduced_to: 55
  - symbol: S # 64
    coordinates: [  0.000000000000000,  0.000000000000000,  0.333333333333333 ]
    mass: 32.065000
    reduced_to: 55
  - symbol: S # 65
    coordinates: [  0.333333333333333,  0.000000000000000,  0.333333333333333 ]
    mass: 32.065000
    reduced_to: 55
  - symbol: S # 66
    coordinates: [  0.666666666666667,  0.000000000000000,  0.333333333333333 ]
    mass: 32.065000
    reduced_to: 55
  - symbol: S # 67
    coordinates: [  0.000000000000000,  0.333333333333333,  0.333333333333333 ]
    mass: 32.065000
    reduced_to: 55
  - symbol: S # 68
    coordinates: [  0.333333333333333,  0.333333333333333,  0.333333333333333 ]
    mass: 32.065000
    reduced_to: 55
  - symbol: S # 69
    coordinates: [  0.666666666666667,  0.333333333333333,  0.333333333333333 ]
    mass: 32.065000
    reduced_to: 55
  - symbol: S # 70
    coordinates: [  0.000000000000000,  0.666666666666667,  0.333333333333333 ]
    mass: 32.065000
    reduced_to: 55
  - symbol: S # 71
    coordinates: [  0.333333333333333,  0.666666666666667,  0.333333333333333 ]
    mass: 32.065000
    reduced_to: 55
  - symbol: S # 72
    coordinates: [  0.666666666666667,  0.666666666666667,  0.333333333333333 ]
    mass: 32.065000
    reduced_to: 55
  - symbol: S # 73
    coordinates: [  0.000000000000000,  0.000000000000000,  0.666666666666667 ]
    mass: 32.065000
    reduced_to: 55
  - symbol: S # 74
    coordinates: [  0.333333333333333,  0.000000000000000,  0.666666666666667 ]
    mass: 32.065000
    reduced_to: 55
  - symbol: S # 75
    coordinates: [  0.666666666666667,  0.000000000000000,  0.666666666666667 ]
    mass: 32.065000
    reduced_to: 55
  - symbol: S # 76
    coordinates: [  0.000000000000000,  0.333333333333333,  0.666666666666667 ]
    mass: 32.065000
    reduced_to: 55
  - symbol: S # 77
    coordinates: [  0.333333333333333,  0.333333333333333,  0.666666666666667 ]
    mass: 32.065000
    reduced_to: 55
  - symbol: S # 78
    coordinates: [  0.666666666666667,  0.333333333333333,  0.666666666666667 ]
    mass: 32.065000
    reduced_to: 55
  - symbol: S # 79
    coordinates: [  0.000000000000000,  0.666666666666667,  0.666666666666667 ]
    mass: 32.065000
    reduced_to: 55
  - symbol: S # 80
    coordinates: [  0.333333333333333,  0.666666666666667,  0.666666666666667 ]
    mass: 32.065000
    reduced_to: 55
  - symbol: S # 81
    coordinates: [  0.666666666666667,  0.666666666666667,  0.666666666666667 ]
    mass: 32.065000
    reduced_to: 55

displacements:
- atom:    1
  displacement:
    [   0.0086602539475839, -0.0000000000190752,  0.0050000001563358 ]
  forces:
  - [  -0.0160882100000000, -0.0000967300000000, -0.0094466800000000 ]
  - [   0.0005377700000000, -0.0001278900000000,  0.0001022300000000 ]
  - [   0.0003585200000000,  0.0001290600000000,  0.0004163000000000 ]
  - [  -0.0001283400000000,  0.0005316300000000,  0.0000352000000000 ]
  - [   0.0001450000000000, -0.0000007300000000,  0.0000835400000000 ]
  - [  -0.0000353100000000, -0.0005359700000000, -0.0001280300000000 ]
  - [  -0.0001281000000000,  0.0001499700000000,  0.0000335500000000 ]
  - [  -0.0000346600000000, -0.0001489100000000, -0.0001279500000000 ]
  - [   0.0001437100000000,  0.0000009800000000,  0.0000853000000000 ]
  - [  -0.0003480900000000, -0.0000889200000000,  0.0004142000000000 ]
  - [   0.0001464800000000,  0.0000003600000000,  0.0000833900000000 ]
  - [   0.0001863200000000,  0.0000899700000000, -0.0005128000000000 ]
  - [  -0.0000529100000000,  0.0000694700000000,  0.0000838300000000 ]
  - [   0.0000449800000000, -0.0000714900000000, -0.0000894200000000 ]
  - [   0.0000057800000000, -0.0000002400000000,  0.0000055200000000 ]
  - [  -0.0002223700000000,  0.0000000400000000, -0.0001303000000000 ]
  - [   0.0000735900000000, -0.0000940800000000,  0.0001201800000000 ]
  - [   0.0001372500000000,  0.0000941100000000,  0.0000043000000000 ]
  - [  -0.0001668200000000,  0.0000385100000000,  0.0001015500000000 ]
  - [   0.0000042000000000, -0.0000387600000000, -0.0001972700000000 ]
  - [   0.0001460000000000, -0.0000000700000000,  0.0000857100000000 ]
  - [  -0.0002218800000000, -0.0000010600000000, -0.0001308400000000 ]
  - [   0.0001379000000000,  0.0000927300000000,  0.0000041000000000 ]
  - [   0.0000723800000000, -0.0000948400000000,  0.0001183800000000 ]
  - [  -0.0000534100000000,  0.0000715900000000,  0.0000858000000000 ]
  - [   0.0000063600000000,  0.0000010300000000,  0.0000048100000000 ]
  - [   0.0000439000000000, -0.0000703100000000, -0.0000894400000000 ]
  - [  -0.0000560900000000,  0.0000837200000000,  0.0001030300000000 ]
  - [  -0.0006160700000000,  0.0000030700000000, -0.0003502700000000 ]
  - [   0.0000596900000000, -0.0000834700000000, -0.0001012000000000 ]
  - [   0.0004589400000000, -0.0021091200000000,  0.0024798300000000 ]
  - [   0.0023876400000000,  0.0021268800000000, -0.0008520600000000 ]
  - [   0.0001772600000000, -0.0000000200000000,  0.0001023000000000 ]
  - [  -0.0001746800000000, -0.0000005200000000, -0.0001013900000000 ]
  - [   0.0001048400000000,  0.0000745000000000,  0.0000228600000000 ]
  - [   0.0000729900000000, -0.0000744000000000,  0.0000796400000000 ]
  - [   0.0020927500000000,  0.0025121800000000, -0.0003491700000000 ]
  - [   0.0007394900000000, -0.0025296100000000,  0.0019986800000000 ]
  - [   0.0001768600000000, -0.0000000300000000,  0.0001028400000000 ]
  - [  -0.0014645500000000, -0.0000048200000000, -0.0008539900000000 ]
  - [   0.0004220900000000,  0.0002173700000000,  0.0005989200000000 ]
  - [   0.0007207200000000, -0.0002152300000000,  0.0000662200000000 ]
  - [  -0.0000853800000000,  0.0001423200000000,  0.0000233200000000 ]
  - [   0.0001143400000000,  0.0000004800000000,  0.0000665100000000 ]
  - [  -0.0000230100000000, -0.0001421200000000, -0.0000881500000000 ]
  - [  -0.0001747600000000, -0.0000001900000000, -0.0001024200000000 ]
  - [   0.0000572900000000, -0.0000553100000000,  0.0001041200000000 ]
  - [   0.0001171600000000,  0.0000552200000000,  0.0000004800000000 ]
  - [  -0.0001323300000000,  0.0000117900000000,  0.0001033300000000 ]
  - [   0.0001139000000000, -0.0000003300000000,  0.0000670600000000 ]
  - [   0.0000210500000000, -0.0000124100000000, -0.0001678300000000 ]
  - [  -0.0000527500000000,  0.0000674500000000,  0.0000799900000000 ]
  - [   0.0000414900000000, -0.0000689100000000, -0.0000883600000000 ]
  - [   0.0000153300000000,  0.0000006300000000,  0.0000055600000000 ]
  - [  -0.0000093800000000,  0.0000004200000000, -0.0000058500000000 ]
  - [   0.0000441300000000, -0.0000559600000000, -0.0000664200000000 ]
  - [  -0.0000318000000000,  0.0000551600000000,  0.0000689300000000 ]
  - [  -0.0000911400000000, -0.0000486800000000, -0.0005442800000000 ]
  - [   0.0013286700000000,  0.0000000100000000,  0.0007817800000000 ]
  - [  -0.0005177600000000,  0.0000495000000000,  0.0001943300000000 ]
  - [   0.0001453300000000,  0.0004536500000000, -0.0001339000000000 ]
  - [  -0.0000442200000000, -0.0004532700000000,  0.0001943500000000 ]
  - [  -0.0001082300000000, -0.0000010200000000, -0.0000591600000000 ]
  - [  -0.0002096400000000, -0.0003855700000000, -0.0003384500000000 ]
  - [   0.0013328200000000,  0.0000115200000000,  0.0007742600000000 ]
  - [  -0.0003949600000000,  0.0003856200000000, -0.0000127400000000 ]
  - [   0.0057783500000000, -0.0015664100000000,  0.0007791000000000 ]
  - [   0.0036553800000000,  0.0016516900000000,  0.0048080900000000 ]
  - [  -0.0006978900000000,  0.0000008000000000, -0.0004018000000000 ]
  - [   0.0003356600000000,  0.0000010000000000,  0.0001932900000000 ]
  - [  -0.0001108700000000, -0.0003350400000000, -0.0001962900000000 ]
  - [  -0.0002253900000000,  0.0003335300000000,  0.0000024100000000 ]
  - [  -0.0001307500000000, -0.0003292500000000,  0.0003440600000000 ]
  - [   0.0002322200000000,  0.0003314000000000, -0.0002847400000000 ]
  - [  -0.0001044000000000, -0.0000003600000000, -0.0000630400000000 ]
  - [   0.0003370800000000,  0.0000001800000000,  0.0001943100000000 ]
  - [   0.0000073400000000,  0.0000035100000000, -0.0004046800000000 ]
  - [  -0.0003433400000000, -0.0000020800000000,  0.0002106600000000 ]
  - [   0.0000315900000000, -0.0000484600000000, -0.0000638800000000 ]
  - [   0.0000049000000000,  0.0000004400000000,  0.0000050600000000 ]
  - [  -0.0000379800000000,  0.0000491000000000,  0.0000597000000000 ]
- atom:   55
  displacement:
    [   0.0086602539475839, -0.0000000000190752,  0.0050000001563358 ]
  forces:
  - [  -0.0000113000000000, -0.0000001100000000, -0.0000061300000000 ]
  - [  -0.0001911400000000,  0.0002784900000000,  0.0003453000000000 ]
  - [   0.0002032100000000, -0.0002785600000000, -0.0003386700000000 ]
  - [   0.0001462500000000,  0.0001174600000000, -0.0001337900000000 ]
  - [  -0.0001070200000000, -0.0000005700000000, -0.0000620800000000 ]
  - [  -0.0000453600000000, -0.0001199400000000,  0.0001933100000000 ]
  - [  -0.0000909700000000,  0.0002871200000000, -0.0005457000000000 ]
  - [  -0.0005164700000000, -0.0002859900000000,  0.0001938000000000 ]
  - [   0.0013420900000000,  0.0000076100000000,  0.0007567800000000 ]
  - [   0.0000271600000000, -0.0002180400000000,  0.0000711800000000 ]
  - [  -0.0001057500000000, -0.0000000100000000, -0.0000623400000000 ]
  - [   0.0000745200000000,  0.0002183200000000, -0.0000154800000000 ]
  - [   0.0000324500000000, -0.0000498800000000, -0.0000619500000000 ]
  - [  -0.0000382600000000,  0.0000478200000000,  0.0000572000000000 ]
  - [   0.0000037800000000,  0.0000000100000000,  0.0000041600000000 ]
  - [   0.0003350300000000,  0.0000001300000000,  0.0001914400000000 ]
  - [  -0.0003432500000000, -0.0000030900000000,  0.0002106500000000 ]
  - [   0.0000067400000000,  0.0000034900000000, -0.0004015800000000 ]
  - [  -0.0003681400000000, -0.0004979200000000, -0.0000654700000000 ]
  - [  -0.0002399300000000,  0.0004965900000000, -0.0002874000000000 ]
  - [   0.0013356500000000, -0.0000189600000000,  0.0007729700000000 ]
  - [   0.0003354400000000, -0.0000008200000000,  0.0001910900000000 ]
  - [  -0.0002261800000000,  0.0003324700000000,  0.0000029100000000 ]
  - [  -0.0001107600000000, -0.0003346100000000, -0.0001961800000000 ]
  - [   0.0059931200000000, -0.0016510600000000,  0.0007639500000000 ]
  - [  -0.0006969100000000,  0.0000013400000000, -0.0004010000000000 ]
  - [   0.0035596300000000,  0.0015646800000000,  0.0046106900000000 ]
  - [   0.0036589600000000,  0.0016524500000000,  0.0048095800000000 ]
  - [  -0.0006968600000000, -0.0000005900000000, -0.0004029800000000 ]
  - [   0.0057749200000000, -0.0015649600000000,  0.0007799800000000 ]
  - [  -0.0001096400000000, -0.0003342700000000, -0.0001961900000000 ]
  - [  -0.0002243900000000,  0.0003329500000000,  0.0000030000000000 ]
  - [   0.0003341900000000,  0.0000001400000000,  0.0001936500000000 ]
  - [   0.0013371400000000,  0.0000189700000000,  0.0007708900000000 ]
  - [  -0.0002394800000000,  0.0004973000000000, -0.0002857100000000 ]
  - [  -0.0003666000000000, -0.0004961400000000, -0.0000643400000000 ]
  - [   0.0000099200000000,  0.0000034100000000, -0.0004021300000000 ]
  - [  -0.0003445800000000, -0.0000023900000000,  0.0002073600000000 ]
  - [   0.0003341100000000,  0.0000002300000000,  0.0001939600000000 ]
  - [   0.0000057400000000, -0.0000012200000000,  0.0000009300000000 ]
  - [  -0.0000364300000000,  0.0000485000000000,  0.0000583800000000 ]
  - [   0.0000317400000000, -0.0000494400000000, -0.0000610100000000 ]
  - [   0.0000770900000000,  0.0002181500000000, -0.0000122100000000 ]
  - [  -0.0001051600000000, -0.0000004700000000, -0.0000605900000000 ]
  - [   0.0000266900000000, -0.0002180100000000,  0.0000702500000000 ]
  - [   0.0013276800000000, -0.0000069600000000,  0.0007861000000000 ]
  - [  -0.0005175900000000, -0.0002859900000000,  0.0001952300000000 ]
  - [  -0.0000918800000000,  0.0002852700000000, -0.0005427700000000 ]
  - [  -0.0000427700000000, -0.0001191800000000,  0.0001945500000000 ]
  - [  -0.0001051200000000, -0.0000001300000000, -0.0000609400000000 ]
  - [   0.0001436700000000,  0.0001191000000000, -0.0001364400000000 ]
  - [   0.0002042500000000, -0.0002786200000000, -0.0003366200000000 ]
  - [  -0.0001908500000000,  0.0002774300000000,  0.0003434700000000 ]
  - [  -0.0000101100000000,  0.0000009000000000, -0.0000088700000000 ]
  - [  -0.0237015800000000,  0.0000002800000000, -0.0136852700000000 ]
  - [   0.0019766600000000,  0.0000001500000000,  0.0011415500000000 ]
  - [   0.0019839700000000, -0.0000003300000000,  0.0011420400000000 ]
  - [  -0.0002204900000000,  0.0016091500000000, -0.0002163100000000 ]
  - [   0.0003204800000000,  0.0000011300000000,  0.0001870300000000 ]
  - [  -0.0002932400000000, -0.0016070500000000, -0.0000829700000000 ]
  - [  -0.0002184200000000,  0.0016090800000000, -0.0002120000000000 ]
  - [  -0.0002973800000000, -0.0016094300000000, -0.0000827900000000 ]
  - [   0.0003197800000000, -0.0000014700000000,  0.0001878700000000 ]
  - [  -0.0010038900000000, -0.0006091600000000,  0.0011421300000000 ]
  - [   0.0003199400000000,  0.0000010400000000,  0.0001866200000000 ]
  - [   0.0004929000000000,  0.0006060500000000, -0.0014395000000000 ]
  - [   0.0000389300000000,  0.0001001000000000,  0.0001865100000000 ]
  - [   0.0001781100000000, -0.0000993300000000, -0.0000595200000000 ]
  - [  -0.0002188100000000,  0.0000007800000000, -0.0001252400000000 ]
  - [  -0.0001433500000000,  0.0000026400000000, -0.0000838100000000 ]
  - [  -0.0000207800000000, -0.0002806200000000,  0.0002171800000000 ]
  - [   0.0001773700000000,  0.0002802000000000, -0.0001258500000000 ]
  - [  -0.0010004800000000, -0.0006061200000000,  0.0011434800000000 ]
  - [   0.0004860600000000,  0.0006102100000000, -0.0014405400000000 ]
  - [   0.0003236500000000, -0.0000004000000000,  0.0001836100000000 ]
  - [  -0.0001429900000000, -0.0000016600000000, -0.0000813000000000 ]
  - [   0.0001762600000000,  0.0002808200000000, -0.0001276000000000 ]
  - [  -0.0000195100000000, -0.0002788500000000,  0.0002196900000000 ]
  - [   0.0000372800000000,  0.0001006100000000,  0.0001830100000000 ]
  - [  -0.0002177700000000,  0.0000003500000000, -0.0001231800000000 ]
  - [   0.0001791100000000, -0.0001005200000000, -0.0000590100000000 ]
