phonopy:
  version: "2.45.1"
  frequency_unit_conversion_factor: 15.633302
  symmetry_tolerance: 1.00000e-05

space_group:
  type: "P6_3/mmc"
  number: 194
  Hall_symbol: "-P 6c 2c"

primitive_matrix:
- [  1.000000000000000,  0.000000000000000,  0.000000000000000 ]
- [  0.000000000000000,  1.000000000000000,  0.000000000000000 ]
- [  0.000000000000000,  0.000000000000000,  1.000000000000000 ]

supercell_matrix:
- [   3,   0,   0 ]
- [   0,   3,   0 ]
- [   0,   0,   2 ]

primitive_cell:
  lattice:
  - [     3.664013401690184,     0.000000000000000,     0.000000000000000 ] # a
  - [    -1.832006204200897,     3.173128293576371,     0.000000000000000 ] # b
  - [     0.000000000000000,     0.000000000000000,     6.227117604696981 ] # c
  points:
  - symbol: Na # 1
    coordinates: [  0.333333000000000,  0.666667000000000,  0.250000000000000 ]
    mass: 22.989769
  - symbol: Na # 2
    coordinates: [  0.666667000000000,  0.333333000000000,  0.750000000000000 ]
    mass: 22.989769
  reciprocal_lattice: # without 2pi
  - [     0.272924765924357,     0.157573163828797,     0.000000000000000 ] # a*
  - [     0.000000000000000,     0.315146413091580,     0.000000000000000 ] # b*
  - [     0.000000000000000,     0.000000000000000,     0.160587941882729 ] # c*

unit_cell:
  lattice:
  - [     3.664013401690184,     0.000000000000000,     0.000000000000000 ] # a
  - [    -1.832006204200897,     3.173128293576372,     0.000000000000000 ] # b
  - [     0.000000000000000,     0.000000000000000,     6.227117604696981 ] # c
  points:
  - symbol: Na # 1
    coordinates: [  0.333333000000000,  0.666667000000000,  0.250000000000000 ]
    mass: 22.989769
    reduced_to: 1
  - symbol: Na # 2
    coordinates: [  0.666667000000000,  0.333333000000000,  0.750000000000000 ]
    mass: 22.989769
    reduced_to: 2

supercell:
  lattice:
  - [    10.992040205070552,     0.000000000000000,     0.000000000000000 ] # a
  - [    -5.496018612602692,     9.519384880729115,     0.000000000000000 ] # b
  - [     0.000000000000000,     0.000000000000000,    12.454235209393962 ] # c
  points:
  - symbol: Na # 1
    coordinates: [  0.111111000000000,  0.222222333333333,  0.125000000000000 ]
    mass: 22.989769
    reduced_to: 1
  - symbol: Na # 2
    coordinates: [  0.444444333333333,  0.222222333333333,  0.125000000000000 ]
    mass: 22.989769
    reduced_to: 1
  - symbol: Na # 3
    coordinates: [  0.777777666666667,  0.222222333333333,  0.125000000000000 ]
    mass: 22.989769
    reduced_to: 1
  - symbol: Na # 4
    coordinates: [  0.111111000000000,  0.555555666666667,  0.125000000000000 ]
    mass: 22.989769
    reduced_to: 1
  - symbol: Na # 5
    coordinates: [  0.444444333333333,  0.555555666666667,  0.125000000000000 ]
    mass: 22.989769
    reduced_to: 1
  - symbol: Na # 6
    coordinates: [  0.777777666666667,  0.555555666666667,  0.125000000000000 ]
    mass: 22.989769
    reduced_to: 1
  - symbol: Na # 7
    coordinates: [  0.111111000000000,  0.888889000000000,  0.125000000000000 ]
    mass: 22.989769
    reduced_to: 1
  - symbol: Na # 8
    coordinates: [  0.444444333333333,  0.888889000000000,  0.125000000000000 ]
    mass: 22.989769
    reduced_to: 1
  - symbol: Na # 9
    coordinates: [  0.777777666666667,  0.888889000000000,  0.125000000000000 ]
    mass: 22.989769
    reduced_to: 1
  - symbol: Na # 10
    coordinates: [  0.111111000000000,  0.222222333333333,  0.625000000000000 ]
    mass: 22.989769
    reduced_to: 1
  - symbol: Na # 11
    coordinates: [  0.444444333333333,  0.222222333333333,  0.625000000000000 ]
    mass: 22.989769
    reduced_to: 1
  - symbol: Na # 12
    coordinates: [  0.777777666666667,  0.222222333333333,  0.625000000000000 ]
    mass: 22.989769
    reduced_to: 1
  - symbol: Na # 13
    coordinates: [  0.111111000000000,  0.555555666666667,  0.625000000000000 ]
    mass: 22.989769
    reduced_to: 1
  - symbol: Na # 14
    coordinates: [  0.444444333333333,  0.555555666666667,  0.625000000000000 ]
    mass: 22.989769
    reduced_to: 1
  - symbol: Na # 15
    coordinates: [  0.777777666666667,  0.555555666666667,  0.625000000000000 ]
    mass: 22.989769
    reduced_to: 1
  - symbol: Na # 16
    coordinates: [  0.111111000000000,  0.888889000000000,  0.625000000000000 ]
    mass: 22.989769
    reduced_to: 1
  - symbol: Na # 17
    coordinates: [  0.444444333333333,  0.888889000000000,  0.625000000000000 ]
    mass: 22.989769
    reduced_to: 1
  - symbol: Na # 18
    coordinates: [  0.777777666666667,  0.888889000000000,  0.625000000000000 ]
    mass: 22.989769
    reduced_to: 1
  - symbol: Na # 19
    coordinates: [  0.222222333333333,  0.111111000000000,  0.375000000000000 ]
    mass: 22.989769
    reduced_to: 19
  - symbol: Na # 20
    coordinates: [  0.555555666666667,  0.111111000000000,  0.375000000000000 ]
    mass: 22.989769
    reduced_to: 19
  - symbol: Na # 21
    coordinates: [  0.888889000000000,  0.111111000000000,  0.375000000000000 ]
    mass: 22.989769
    reduced_to: 19
  - symbol: Na # 22
    coordinates: [  0.222222333333333,  0.444444333333333,  0.375000000000000 ]
    mass: 22.989769
    reduced_to: 19
  - symbol: Na # 23
    coordinates: [  0.555555666666667,  0.444444333333333,  0.375000000000000 ]
    mass: 22.989769
    reduced_to: 19
  - symbol: Na # 24
    coordinates: [  0.888889000000000,  0.444444333333333,  0.375000000000000 ]
    mass: 22.989769
    reduced_to: 19
  - symbol: Na # 25
    coordinates: [  0.222222333333333,  0.777777666666667,  0.375000000000000 ]
    mass: 22.989769
    reduced_to: 19
  - symbol: Na # 26
    coordinates: [  0.555555666666667,  0.777777666666667,  0.375000000000000 ]
    mass: 22.989769
    reduced_to: 19
  - symbol: Na # 27
    coordinates: [  0.888889000000000,  0.777777666666667,  0.375000000000000 ]
    mass: 22.989769
    reduced_to: 19
  - symbol: Na # 28
    coordinates: [  0.222222333333333,  0.111111000000000,  0.875000000000000 ]
    mass: 22.989769
    reduced_to: 19
  - symbol: Na # 29
    coordinates: [  0.555555666666667,  0.111111000000000,  0.875000000000000 ]
    mass: 22.989769
    reduced_to: 19
  - symbol: Na # 30
    coordinates: [  0.888889000000000,  0.111111000000000,  0.875000000000000 ]
    mass: 22.989769
    reduced_to: 19
  - symbol: Na # 31
    coordinates: [  0.222222333333333,  0.444444333333333,  0.875000000000000 ]
    mass: 22.989769
    reduced_to: 19
  - symbol: Na # 32
    coordinates: [  0.555555666666667,  0.444444333333333,  0.875000000000000 ]
    mass: 22.989769
    reduced_to: 19
  - symbol: Na # 33
    coordinates: [  0.888889000000000,  0.444444333333333,  0.875000000000000 ]
    mass: 22.989769
    reduced_to: 19
  - symbol: Na # 34
    coordinates: [  0.222222333333333,  0.777777666666667,  0.875000000000000 ]
    mass: 22.989769
    reduced_to: 19
  - symbol: Na # 35
    coordinates: [  0.555555666666667,  0.777777666666667,  0.875000000000000 ]
    mass: 22.989769
    reduced_to: 19
  - symbol: Na # 36
    coordinates: [  0.888889000000000,  0.777777666666667,  0.875000000000000 ]
    mass: 22.989769
    reduced_to: 19

displacements:
- atom:    1
  displacement:
    [   0.0066172348427325,  0.0000000000000000,  0.0074974797789742 ]
  forces:
  - [  -0.0050626500000000,  0.0000012700000000, -0.0053758100000000 ]
  - [   0.0013739000000000,  0.0000004800000000, -0.0000586800000000 ]
  - [   0.0013646600000000, -0.0000015700000000, -0.0000527700000000 ]
  - [   0.0003103300000000, -0.0006120900000000, -0.0000541900000000 ]
  - [   0.0003070200000000,  0.0006101500000000, -0.0000572000000000 ]
  - [  -0.0000095600000000, -0.0000003100000000, -0.0000064000000000 ]
  - [   0.0003071200000000, -0.0006127400000000, -0.0000572500000000 ]
  - [  -0.0000097400000000,  0.0000001400000000, -0.0000065900000000 ]
  - [   0.0003104800000000,  0.0006137400000000, -0.0000543500000000 ]
  - [  -0.0000010700000000, -0.0000006700000000, -0.0000007500000000 ]
  - [   0.0000014400000000, -0.0000016900000000,  0.0000044100000000 ]
  - [   0.0000017200000000,  0.0000003100000000,  0.0000044800000000 ]
  - [  -0.0000009900000000, -0.0000026400000000,  0.0000046300000000 ]
  - [  -0.0000009600000000,  0.0000021300000000,  0.0000044500000000 ]
  - [   0.0000036200000000, -0.0000001000000000,  0.0000065500000000 ]
  - [  -0.0000008100000000, -0.0000005800000000,  0.0000046000000000 ]
  - [   0.0000033400000000, -0.0000001100000000,  0.0000066700000000 ]
  - [  -0.0000007700000000,  0.0000002400000000,  0.0000047300000000 ]
  - [   0.0008509300000000, -0.0004987100000000,  0.0014496000000000 ]
  - [  -0.0000064500000000,  0.0000001400000000, -0.0000000900000000 ]
  - [  -0.0002774800000000, -0.0001537300000000,  0.0004472300000000 ]
  - [  -0.0000122600000000,  0.0006521700000000,  0.0009471100000000 ]
  - [  -0.0000059500000000, -0.0000045000000000, -0.0000041900000000 ]
  - [   0.0000049700000000, -0.0000013300000000,  0.0000050200000000 ]
  - [  -0.0000025700000000,  0.0000028900000000,  0.0000000500000000 ]
  - [  -0.0000025100000000, -0.0000015800000000,  0.0000000900000000 ]
  - [   0.0000024000000000,  0.0000066800000000,  0.0000005200000000 ]
  - [  -0.0002776800000000,  0.0001551500000000,  0.0004523100000000 ]
  - [  -0.0000061700000000,  0.0000000600000000,  0.0000000400000000 ]
  - [   0.0008469700000000,  0.0004931000000000,  0.0014383700000000 ]
  - [  -0.0000081200000000, -0.0006486600000000,  0.0009467000000000 ]
  - [   0.0000048100000000,  0.0000015700000000,  0.0000050400000000 ]
  - [  -0.0000052300000000,  0.0000046400000000, -0.0000043800000000 ]
  - [  -0.0000024900000000,  0.0000026900000000, -0.0000001000000000 ]
  - [  -0.0000025700000000, -0.0000013400000000, -0.0000000400000000 ]
  - [   0.0000023200000000, -0.0000051800000000,  0.0000001900000000 ]
