phonopy:
  version: "2.45.1"
  frequency_unit_conversion_factor: 15.633302
  symmetry_tolerance: 1.00000e-05

space_group:
  type: "P6_3/mmc"
  number: 194
  Hall_symbol: "-P 6c 2c"

primitive_matrix:
- [  1.000000000000000,  0.000000000000000,  0.000000000000000 ]
- [  0.000000000000000,  1.000000000000000,  0.000000000000000 ]
- [  0.000000000000000,  0.000000000000000,  1.000000000000000 ]

supercell_matrix:
- [   3,   0,   0 ]
- [   0,   3,   0 ]
- [   0,   0,   2 ]

primitive_cell:
  lattice:
  - [     3.664013401690183,     0.000000000000000,     0.000000000000000 ] # a
  - [    -1.832006204200897,     3.173128293576372,     0.000000000000000 ] # b
  - [     0.000000000000000,     0.000000000000000,     6.227117604696983 ] # c
  points:
  - symbol: Na # 1
    coordinates: [  0.333333000000000,  0.666667000000000,  0.250000000000000 ]
    mass: 22.989769
  - symbol: Na # 2
    coordinates: [  0.666667000000000,  0.333333000000000,  0.750000000000000 ]
    mass: 22.989769
  reciprocal_lattice: # without 2pi
  - [     0.272924765924357,     0.157573163828797,     0.000000000000000 ] # a*
  - [     0.000000000000000,     0.315146413091580,     0.000000000000000 ] # b*
  - [     0.000000000000000,     0.000000000000000,     0.160587941882729 ] # c*

unit_cell:
  lattice:
  - [     3.664013401690184,     0.000000000000000,     0.000000000000000 ] # a
  - [    -1.832006204200897,     3.173128293576372,     0.000000000000000 ] # b
  - [     0.000000000000000,     0.000000000000000,     6.227117604696981 ] # c
  points:
  - symbol: Na # 1
    coordinates: [  0.333333000000000,  0.666667000000000,  0.250000000000000 ]
    mass: 22.989769
    reduced_to: 1
  - symbol: Na # 2
    coordinates: [  0.666667000000000,  0.333333000000000,  0.750000000000000 ]
    mass: 22.989769
    reduced_to: 2

supercell:
  lattice:
  - [    10.992040205070550,     0.000000000000000,     0.000000000000000 ] # a
  - [    -5.496018612602692,     9.519384880729115,     0.000000000000000 ] # b
  - [     0.000000000000000,     0.000000000000000,    12.454235209393962 ] # c
  points:
  - symbol: Na # 1
    coordinates: [  0.111111000000000,  0.222222333333333,  0.125000000000000 ]
    mass: 22.989769
    reduced_to: 1
  - symbol: Na # 2
    coordinates: [  0.444444333333333,  0.222222333333333,  0.125000000000000 ]
    mass: 22.989769
    reduced_to: 1
  - symbol: Na # 3
    coordinates: [  0.777777666666667,  0.222222333333333,  0.125000000000000 ]
    mass: 22.989769
    reduced_to: 1
  - symbol: Na # 4
    coordinates: [  0.111111000000000,  0.555555666666667,  0.125000000000000 ]
    mass: 22.989769
    reduced_to: 1
  - symbol: Na # 5
    coordinates: [  0.444444333333333,  0.555555666666667,  0.125000000000000 ]
    mass: 22.989769
    reduced_to: 1
  - symbol: Na # 6
    coordinates: [  0.777777666666667,  0.555555666666667,  0.125000000000000 ]
    mass: 22.989769
    reduced_to: 1
  - symbol: Na # 7
    coordinates: [  0.111111000000000,  0.888889000000000,  0.125000000000000 ]
    mass: 22.989769
    reduced_to: 1
  - symbol: Na # 8
    coordinates: [  0.444444333333333,  0.888889000000000,  0.125000000000000 ]
    mass: 22.989769
    reduced_to: 1
  - symbol: Na # 9
    coordinates: [  0.777777666666667,  0.888889000000000,  0.125000000000000 ]
    mass: 22.989769
    reduced_to: 1
  - symbol: Na # 10
    coordinates: [  0.111111000000000,  0.222222333333333,  0.625000000000000 ]
    mass: 22.989769
    reduced_to: 1
  - symbol: Na # 11
    coordinates: [  0.444444333333333,  0.222222333333333,  0.625000000000000 ]
    mass: 22.989769
    reduced_to: 1
  - symbol: Na # 12
    coordinates: [  0.777777666666667,  0.222222333333333,  0.625000000000000 ]
    mass: 22.989769
    reduced_to: 1
  - symbol: Na # 13
    coordinates: [  0.111111000000000,  0.555555666666667,  0.625000000000000 ]
    mass: 22.989769
    reduced_to: 1
  - symbol: Na # 14
    coordinates: [  0.444444333333333,  0.555555666666667,  0.625000000000000 ]
    mass: 22.989769
    reduced_to: 1
  - symbol: Na # 15
    coordinates: [  0.777777666666667,  0.555555666666667,  0.625000000000000 ]
    mass: 22.989769
    reduced_to: 1
  - symbol: Na # 16
    coordinates: [  0.111111000000000,  0.888889000000000,  0.625000000000000 ]
    mass: 22.989769
    reduced_to: 1
  - symbol: Na # 17
    coordinates: [  0.444444333333333,  0.888889000000000,  0.625000000000000 ]
    mass: 22.989769
    reduced_to: 1
  - symbol: Na # 18
    coordinates: [  0.777777666666667,  0.888889000000000,  0.625000000000000 ]
    mass: 22.989769
    reduced_to: 1
  - symbol: Na # 19
    coordinates: [  0.222222333333333,  0.111111000000000,  0.375000000000000 ]
    mass: 22.989769
    reduced_to: 19
  - symbol: Na # 20
    coordinates: [  0.555555666666667,  0.111111000000000,  0.375000000000000 ]
    mass: 22.989769
    reduced_to: 19
  - symbol: Na # 21
    coordinates: [  0.888889000000000,  0.111111000000000,  0.375000000000000 ]
    mass: 22.989769
    reduced_to: 19
  - symbol: Na # 22
    coordinates: [  0.222222333333333,  0.444444333333333,  0.375000000000000 ]
    mass: 22.989769
    reduced_to: 19
  - symbol: Na # 23
    coordinates: [  0.555555666666667,  0.444444333333333,  0.375000000000000 ]
    mass: 22.989769
    reduced_to: 19
  - symbol: Na # 24
    coordinates: [  0.888889000000000,  0.444444333333333,  0.375000000000000 ]
    mass: 22.989769
    reduced_to: 19
  - symbol: Na # 25
    coordinates: [  0.222222333333333,  0.777777666666667,  0.375000000000000 ]
    mass: 22.989769
    reduced_to: 19
  - symbol: Na # 26
    coordinates: [  0.555555666666667,  0.777777666666667,  0.375000000000000 ]
    mass: 22.989769
    reduced_to: 19
  - symbol: Na # 27
    coordinates: [  0.888889000000000,  0.777777666666667,  0.375000000000000 ]
    mass: 22.989769
    reduced_to: 19
  - symbol: Na # 28
    coordinates: [  0.222222333333333,  0.111111000000000,  0.875000000000000 ]
    mass: 22.989769
    reduced_to: 19
  - symbol: Na # 29
    coordinates: [  0.555555666666667,  0.111111000000000,  0.875000000000000 ]
    mass: 22.989769
    reduced_to: 19
  - symbol: Na # 30
    coordinates: [  0.888889000000000,  0.111111000000000,  0.875000000000000 ]
    mass: 22.989769
    reduced_to: 19
  - symbol: Na # 31
    coordinates: [  0.222222333333333,  0.444444333333333,  0.875000000000000 ]
    mass: 22.989769
    reduced_to: 19
  - symbol: Na # 32
    coordinates: [  0.555555666666667,  0.444444333333333,  0.875000000000000 ]
    mass: 22.989769
    reduced_to: 19
  - symbol: Na # 33
    coordinates: [  0.888889000000000,  0.444444333333333,  0.875000000000000 ]
    mass: 22.989769
    reduced_to: 19
  - symbol: Na # 34
    coordinates: [  0.222222333333333,  0.777777666666667,  0.875000000000000 ]
    mass: 22.989769
    reduced_to: 19
  - symbol: Na # 35
    coordinates: [  0.555555666666667,  0.777777666666667,  0.875000000000000 ]
    mass: 22.989769
    reduced_to: 19
  - symbol: Na # 36
    coordinates: [  0.888889000000000,  0.777777666666667,  0.875000000000000 ]
    mass: 22.989769
    reduced_to: 19

displacements:
- atom:    1
  displacement:
    [   0.0066172348427325,  0.0000000000000000,  0.0074974797789742 ]
