phonopy:
  version: "2.45.1"
  frequency_unit_conversion_factor: 15.633302
  symmetry_tolerance: 1.00000e-05

space_group:
  type: "P6_3/mmc"
  number: 194
  Hall_symbol: "-P 6c 2c"

primitive_matrix:
- [  1.000000000000000, -0.000000000000000,  0.000000000000000 ]
- [  0.000000000000000,  1.000000000000000,  0.000000000000000 ]
- [  0.000000000000000,  0.000000000000000,  1.000000000000000 ]

supercell_matrix:
- [   3,   0,   0 ]
- [   0,   3,   0 ]
- [   0,   0,   2 ]

primitive_cell:
  lattice:
  - [     3.688771000000000,     0.000000000000000,     0.000000000000000 ] # a
  - [    -1.844385000000000,     3.194569000000000,     0.000000000000000 ] # b
  - [     0.000000000000000,     0.000000000000000,     6.269194000000000 ] # c
  points:
  - symbol: Na # 1
    coordinates: [  0.333333000000000,  0.666667000000000,  0.250000000000000 ]
    mass: 22.989769
  - symbol: Na # 2
    coordinates: [  0.666667000000000,  0.333333000000000,  0.750000000000000 ]
    mass: 22.989769
  reciprocal_lattice: # without 2pi
  - [     0.271093000893794,     0.156515593951328,     0.000000000000000 ] # a*
  - [     0.000000000000000,     0.313031272763243,     0.000000000000000 ] # b*
  - [     0.000000000000000,     0.000000000000000,     0.159510137985840 ] # c*

unit_cell:
  lattice:
  - [     3.688771000000000,     0.000000000000000,     0.000000000000000 ] # a
  - [    -1.844385000000000,     3.194569000000000,     0.000000000000000 ] # b
  - [     0.000000000000000,     0.000000000000000,     6.269194000000000 ] # c
  points:
  - symbol: Na # 1
    coordinates: [  0.333333000000000,  0.666667000000000,  0.250000000000000 ]
    mass: 22.989769
    reduced_to: 1
  - symbol: Na # 2
    coordinates: [  0.666667000000000,  0.333333000000000,  0.750000000000000 ]
    mass: 22.989769
    reduced_to: 2

supercell:
  lattice:
  - [    11.066313000000001,     0.000000000000000,     0.000000000000000 ] # a
  - [    -5.533155000000000,     9.583707000000000,     0.000000000000000 ] # b
  - [     0.000000000000000,     0.000000000000000,    12.538387999999999 ] # c
  points:
  - symbol: Na # 1
    coordinates: [  0.111111000000000,  0.222222333333333,  0.125000000000000 ]
    mass: 22.989769
    reduced_to: 1
  - symbol: Na # 2
    coordinates: [  0.444444333333333,  0.222222333333333,  0.125000000000000 ]
    mass: 22.989769
    reduced_to: 1
  - symbol: Na # 3
    coordinates: [  0.777777666666667,  0.222222333333333,  0.125000000000000 ]
    mass: 22.989769
    reduced_to: 1
  - symbol: Na # 4
    coordinates: [  0.111111000000000,  0.555555666666667,  0.125000000000000 ]
    mass: 22.989769
    reduced_to: 1
  - symbol: Na # 5
    coordinates: [  0.444444333333333,  0.555555666666667,  0.125000000000000 ]
    mass: 22.989769
    reduced_to: 1
  - symbol: Na # 6
    coordinates: [  0.777777666666667,  0.555555666666667,  0.125000000000000 ]
    mass: 22.989769
    reduced_to: 1
  - symbol: Na # 7
    coordinates: [  0.111111000000000,  0.888889000000000,  0.125000000000000 ]
    mass: 22.989769
    reduced_to: 1
  - symbol: Na # 8
    coordinates: [  0.444444333333333,  0.888889000000000,  0.125000000000000 ]
    mass: 22.989769
    reduced_to: 1
  - symbol: Na # 9
    coordinates: [  0.777777666666667,  0.888889000000000,  0.125000000000000 ]
    mass: 22.989769
    reduced_to: 1
  - symbol: Na # 10
    coordinates: [  0.111111000000000,  0.222222333333333,  0.625000000000000 ]
    mass: 22.989769
    reduced_to: 1
  - symbol: Na # 11
    coordinates: [  0.444444333333333,  0.222222333333333,  0.625000000000000 ]
    mass: 22.989769
    reduced_to: 1
  - symbol: Na # 12
    coordinates: [  0.777777666666667,  0.222222333333333,  0.625000000000000 ]
    mass: 22.989769
    reduced_to: 1
  - symbol: Na # 13
    coordinates: [  0.111111000000000,  0.555555666666667,  0.625000000000000 ]
    mass: 22.989769
    reduced_to: 1
  - symbol: Na # 14
    coordinates: [  0.444444333333333,  0.555555666666667,  0.625000000000000 ]
    mass: 22.989769
    reduced_to: 1
  - symbol: Na # 15
    coordinates: [  0.777777666666667,  0.555555666666667,  0.625000000000000 ]
    mass: 22.989769
    reduced_to: 1
  - symbol: Na # 16
    coordinates: [  0.111111000000000,  0.888889000000000,  0.625000000000000 ]
    mass: 22.989769
    reduced_to: 1
  - symbol: Na # 17
    coordinates: [  0.444444333333333,  0.888889000000000,  0.625000000000000 ]
    mass: 22.989769
    reduced_to: 1
  - symbol: Na # 18
    coordinates: [  0.777777666666667,  0.888889000000000,  0.625000000000000 ]
    mass: 22.989769
    reduced_to: 1
  - symbol: Na # 19
    coordinates: [  0.222222333333333,  0.111111000000000,  0.375000000000000 ]
    mass: 22.989769
    reduced_to: 19
  - symbol: Na # 20
    coordinates: [  0.555555666666667,  0.111111000000000,  0.375000000000000 ]
    mass: 22.989769
    reduced_to: 19
  - symbol: Na # 21
    coordinates: [  0.888889000000000,  0.111111000000000,  0.375000000000000 ]
    mass: 22.989769
    reduced_to: 19
  - symbol: Na # 22
    coordinates: [  0.222222333333333,  0.444444333333333,  0.375000000000000 ]
    mass: 22.989769
    reduced_to: 19
  - symbol: Na # 23
    coordinates: [  0.555555666666667,  0.444444333333333,  0.375000000000000 ]
    mass: 22.989769
    reduced_to: 19
  - symbol: Na # 24
    coordinates: [  0.888889000000000,  0.444444333333333,  0.375000000000000 ]
    mass: 22.989769
    reduced_to: 19
  - symbol: Na # 25
    coordinates: [  0.222222333333333,  0.777777666666667,  0.375000000000000 ]
    mass: 22.989769
    reduced_to: 19
  - symbol: Na # 26
    coordinates: [  0.555555666666667,  0.777777666666667,  0.375000000000000 ]
    mass: 22.989769
    reduced_to: 19
  - symbol: Na # 27
    coordinates: [  0.888889000000000,  0.777777666666667,  0.375000000000000 ]
    mass: 22.989769
    reduced_to: 19
  - symbol: Na # 28
    coordinates: [  0.222222333333333,  0.111111000000000,  0.875000000000000 ]
    mass: 22.989769
    reduced_to: 19
  - symbol: Na # 29
    coordinates: [  0.555555666666667,  0.111111000000000,  0.875000000000000 ]
    mass: 22.989769
    reduced_to: 19
  - symbol: Na # 30
    coordinates: [  0.888889000000000,  0.111111000000000,  0.875000000000000 ]
    mass: 22.989769
    reduced_to: 19
  - symbol: Na # 31
    coordinates: [  0.222222333333333,  0.444444333333333,  0.875000000000000 ]
    mass: 22.989769
    reduced_to: 19
  - symbol: Na # 32
    coordinates: [  0.555555666666667,  0.444444333333333,  0.875000000000000 ]
    mass: 22.989769
    reduced_to: 19
  - symbol: Na # 33
    coordinates: [  0.888889000000000,  0.444444333333333,  0.875000000000000 ]
    mass: 22.989769
    reduced_to: 19
  - symbol: Na # 34
    coordinates: [  0.222222333333333,  0.777777666666667,  0.875000000000000 ]
    mass: 22.989769
    reduced_to: 19
  - symbol: Na # 35
    coordinates: [  0.555555666666667,  0.777777666666667,  0.875000000000000 ]
    mass: 22.989769
    reduced_to: 19
  - symbol: Na # 36
    coordinates: [  0.888889000000000,  0.777777666666667,  0.875000000000000 ]
    mass: 22.989769
    reduced_to: 19

displacements:
- atom:    1
  displacement:
    [   0.0066172348427325,  0.0000000000000000,  0.0074974797789742 ]
  forces:
  - [  -0.0050198800000000,  0.0000013600000000, -0.0053807100000000 ]
  - [   0.0013360500000000,  0.0000002800000000, -0.0000482400000000 ]
  - [   0.0013293300000000, -0.0000017600000000, -0.0000426400000000 ]
  - [   0.0003092600000000, -0.0005925300000000, -0.0000440200000000 ]
  - [   0.0003056700000000,  0.0005896000000000, -0.0000468600000000 ]
  - [  -0.0000072900000000, -0.0000005600000000, -0.0000065400000000 ]
  - [   0.0003054700000000, -0.0005920000000000, -0.0000469000000000 ]
  - [  -0.0000073400000000,  0.0000003300000000, -0.0000065800000000 ]
  - [   0.0003092300000000,  0.0005940800000000, -0.0000441700000000 ]
  - [  -0.0000027600000000, -0.0000007600000000,  0.0000078200000000 ]
  - [   0.0000023200000000, -0.0000012600000000,  0.0000071200000000 ]
  - [   0.0000023800000000, -0.0000003200000000,  0.0000073100000000 ]
  - [  -0.0000006900000000, -0.0000027200000000,  0.0000071600000000 ]
  - [  -0.0000006200000000,  0.0000019300000000,  0.0000072600000000 ]
  - [   0.0000033400000000, -0.0000004500000000,  0.0000063700000000 ]
  - [  -0.0000007000000000, -0.0000014900000000,  0.0000069500000000 ]
  - [   0.0000033100000000, -0.0000001500000000,  0.0000063200000000 ]
  - [  -0.0000006500000000,  0.0000013400000000,  0.0000073600000000 ]
  - [   0.0008383500000000, -0.0004858700000000,  0.0014237700000000 ]
  - [  -0.0000022600000000,  0.0000004100000000, -0.0000003500000000 ]
  - [  -0.0002638400000000, -0.0001503200000000,  0.0004453700000000 ]
  - [  -0.0000034000000000,  0.0006367300000000,  0.0009331800000000 ]
  - [  -0.0000028900000000, -0.0000016600000000, -0.0000026200000000 ]
  - [   0.0000033700000000, -0.0000012500000000,  0.0000028400000000 ]
  - [  -0.0000014000000000,  0.0000008000000000, -0.0000001100000000 ]
  - [  -0.0000015200000000, -0.0000001500000000, -0.0000000400000000 ]
  - [   0.0000003600000000,  0.0000038600000000,  0.0000001400000000 ]
  - [  -0.0002631100000000,  0.0001524200000000,  0.0004510800000000 ]
  - [  -0.0000018900000000,  0.0000003800000000,  0.0000003400000000 ]
  - [   0.0008332300000000,  0.0004806700000000,  0.0014134200000000 ]
  - [   0.0000006000000000, -0.0006325400000000,  0.0009334800000000 ]
  - [   0.0000032700000000,  0.0000018900000000,  0.0000033400000000 ]
  - [  -0.0000027200000000,  0.0000022000000000, -0.0000021300000000 ]
  - [  -0.0000014000000000,  0.0000005700000000,  0.0000003700000000 ]
  - [  -0.0000015100000000,  0.0000001500000000,  0.0000002700000000 ]
  - [   0.0000003200000000, -0.0000032000000000,  0.0000006600000000 ]
