phonopy:
  version: "2.45.1"
  frequency_unit_conversion_factor: 15.633302
  symmetry_tolerance: 1.00000e-05

space_group:
  type: "Fm-3m"
  number: 225
  Hall_symbol: "-F 4 2 3"

primitive_matrix:
- [ -1.000000000000000, -0.000000000000000,  0.000000000000000 ]
- [  1.000000000000000,  1.000000000000000,  1.000000000000000 ]
- [  0.000000000000000,  0.000000000000000, -1.000000000000000 ]

supercell_matrix:
- [   3,   0,   0 ]
- [   0,   3,   0 ]
- [   0,   0,   3 ]

primitive_cell:
  lattice:
  - [    -2.485452051645058,     3.514959301751857,    -0.000000000000000 ] # a
  - [     1.242725522511174,     3.514959301751857,     2.152464822766964 ] # b
  - [     1.242725512444947,     3.514959291685630,    -2.152462759190410 ] # c
  points:
  - symbol: Sr # 1
    coordinates: [  0.000000000000000,  0.000000000000000,  0.000000000000000 ]
    mass: 87.620000
  - symbol: S # 2
    coordinates: [  0.500000000000000,  0.500000000000000,  0.500000000000000 ]
    mass: 32.065000
  reciprocal_lattice: # without 2pi
  - [    -0.268227567218023,     0.094832746024703,     0.000000000405450 ] # a*
  - [     0.134113719513312,     0.094832739358313,     0.232291944209824 ] # b*
  - [     0.134113848088790,     0.094832830274923,    -0.232291945280517 ] # c*

unit_cell:
  lattice:
  - [     3.728177574156232,     0.000000000000000,     2.152464822766964 ] # a
  - [     1.242725522511174,     3.514959301751857,     2.152464822766964 ] # b
  - [     0.000000010066227,     0.000000010066227,     4.304927581957375 ] # c
  points:
  - symbol: Sr # 1
    coordinates: [  0.000000000000000,  0.000000000000000,  0.000000000000000 ]
    mass: 87.620000
    reduced_to: 1
  - symbol: S # 2
    coordinates: [  0.500000000000000,  0.500000000000000,  0.500000000000000 ]
    mass: 32.065000
    reduced_to: 2

supercell:
  lattice:
  - [    11.184532722468695,     0.000000000000000,     6.457394468300892 ] # a
  - [     3.728176567533522,    10.544877905255571,     6.457394468300892 ] # b
  - [     0.000000030198681,     0.000000030198681,    12.914782745872124 ] # c
  points:
  - symbol: Sr # 1
    coordinates: [  0.000000000000000,  0.000000000000000,  0.000000000000000 ]
    mass: 87.620000
    reduced_to: 1
  - symbol: Sr # 2
    coordinates: [  0.333333333333333,  0.000000000000000,  0.000000000000000 ]
    mass: 87.620000
    reduced_to: 1
  - symbol: Sr # 3
    coordinates: [  0.666666666666667,  0.000000000000000,  0.000000000000000 ]
    mass: 87.620000
    reduced_to: 1
  - symbol: Sr # 4
    coordinates: [  0.000000000000000,  0.333333333333333,  0.000000000000000 ]
    mass: 87.620000
    reduced_to: 1
  - symbol: Sr # 5
    coordinates: [  0.333333333333333,  0.333333333333333,  0.000000000000000 ]
    mass: 87.620000
    reduced_to: 1
  - symbol: Sr # 6
    coordinates: [  0.666666666666667,  0.333333333333333,  0.000000000000000 ]
    mass: 87.620000
    reduced_to: 1
  - symbol: Sr # 7
    coordinates: [  0.000000000000000,  0.666666666666667,  0.000000000000000 ]
    mass: 87.620000
    reduced_to: 1
  - symbol: Sr # 8
    coordinates: [  0.333333333333333,  0.666666666666667,  0.000000000000000 ]
    mass: 87.620000
    reduced_to: 1
  - symbol: Sr # 9
    coordinates: [  0.666666666666667,  0.666666666666667,  0.000000000000000 ]
    mass: 87.620000
    reduced_to: 1
  - symbol: Sr # 10
    coordinates: [  0.000000000000000,  0.000000000000000,  0.333333333333333 ]
    mass: 87.620000
    reduced_to: 1
  - symbol: Sr # 11
    coordinates: [  0.333333333333333,  0.000000000000000,  0.333333333333333 ]
    mass: 87.620000
    reduced_to: 1
  - symbol: Sr # 12
    coordinates: [  0.666666666666667,  0.000000000000000,  0.333333333333333 ]
    mass: 87.620000
    reduced_to: 1
  - symbol: Sr # 13
    coordinates: [  0.000000000000000,  0.333333333333333,  0.333333333333333 ]
    mass: 87.620000
    reduced_to: 1
  - symbol: Sr # 14
    coordinates: [  0.333333333333333,  0.333333333333333,  0.333333333333333 ]
    mass: 87.620000
    reduced_to: 1
  - symbol: Sr # 15
    coordinates: [  0.666666666666667,  0.333333333333333,  0.333333333333333 ]
    mass: 87.620000
    reduced_to: 1
  - symbol: Sr # 16
    coordinates: [  0.000000000000000,  0.666666666666667,  0.333333333333333 ]
    mass: 87.620000
    reduced_to: 1
  - symbol: Sr # 17
    coordinates: [  0.333333333333333,  0.666666666666667,  0.333333333333333 ]
    mass: 87.620000
    reduced_to: 1
  - symbol: Sr # 18
    coordinates: [  0.666666666666667,  0.666666666666667,  0.333333333333333 ]
    mass: 87.620000
    reduced_to: 1
  - symbol: Sr # 19
    coordinates: [  0.000000000000000,  0.000000000000000,  0.666666666666667 ]
    mass: 87.620000
    reduced_to: 1
  - symbol: Sr # 20
    coordinates: [  0.333333333333333,  0.000000000000000,  0.666666666666667 ]
    mass: 87.620000
    reduced_to: 1
  - symbol: Sr # 21
    coordinates: [  0.666666666666667,  0.000000000000000,  0.666666666666667 ]
    mass: 87.620000
    reduced_to: 1
  - symbol: Sr # 22
    coordinates: [  0.000000000000000,  0.333333333333333,  0.666666666666667 ]
    mass: 87.620000
    reduced_to: 1
  - symbol: Sr # 23
    coordinates: [  0.333333333333333,  0.333333333333333,  0.666666666666667 ]
    mass: 87.620000
    reduced_to: 1
  - symbol: Sr # 24
    coordinates: [  0.666666666666667,  0.333333333333333,  0.666666666666667 ]
    mass: 87.620000
    reduced_to: 1
  - symbol: Sr # 25
    coordinates: [  0.000000000000000,  0.666666666666667,  0.666666666666667 ]
    mass: 87.620000
    reduced_to: 1
  - symbol: Sr # 26
    coordinates: [  0.333333333333333,  0.666666666666667,  0.666666666666667 ]
    mass: 87.620000
    reduced_to: 1
  - symbol: Sr # 27
    coordinates: [  0.666666666666667,  0.666666666666667,  0.666666666666667 ]
    mass: 87.620000
    reduced_to: 1
  - symbol: S # 28
    coordinates: [  0.166666666666667,  0.166666666666667,  0.166666666666667 ]
    mass: 32.065000
    reduced_to: 28
  - symbol: S # 29
    coordinates: [  0.500000000000000,  0.166666666666667,  0.166666666666667 ]
    mass: 32.065000
    reduced_to: 28
  - symbol: S # 30
    coordinates: [  0.833333333333333,  0.166666666666667,  0.166666666666667 ]
    mass: 32.065000
    reduced_to: 28
  - symbol: S # 31
    coordinates: [  0.166666666666667,  0.500000000000000,  0.166666666666667 ]
    mass: 32.065000
    reduced_to: 28
  - symbol: S # 32
    coordinates: [  0.500000000000000,  0.500000000000000,  0.166666666666667 ]
    mass: 32.065000
    reduced_to: 28
  - symbol: S # 33
    coordinates: [  0.833333333333333,  0.500000000000000,  0.166666666666667 ]
    mass: 32.065000
    reduced_to: 28
  - symbol: S # 34
    coordinates: [  0.166666666666667,  0.833333333333333,  0.166666666666667 ]
    mass: 32.065000
    reduced_to: 28
  - symbol: S # 35
    coordinates: [  0.500000000000000,  0.833333333333333,  0.166666666666667 ]
    mass: 32.065000
    reduced_to: 28
  - symbol: S # 36
    coordinates: [  0.833333333333333,  0.833333333333333,  0.166666666666667 ]
    mass: 32.065000
    reduced_to: 28
  - symbol: S # 37
    coordinates: [  0.166666666666667,  0.166666666666667,  0.500000000000000 ]
    mass: 32.065000
    reduced_to: 28
  - symbol: S # 38
    coordinates: [  0.500000000000000,  0.166666666666667,  0.500000000000000 ]
    mass: 32.065000
    reduced_to: 28
  - symbol: S # 39
    coordinates: [  0.833333333333333,  0.166666666666667,  0.500000000000000 ]
    mass: 32.065000
    reduced_to: 28
  - symbol: S # 40
    coordinates: [  0.166666666666667,  0.500000000000000,  0.500000000000000 ]
    mass: 32.065000
    reduced_to: 28
  - symbol: S # 41
    coordinates: [  0.500000000000000,  0.500000000000000,  0.500000000000000 ]
    mass: 32.065000
    reduced_to: 28
  - symbol: S # 42
    coordinates: [  0.833333333333333,  0.500000000000000,  0.500000000000000 ]
    mass: 32.065000
    reduced_to: 28
  - symbol: S # 43
    coordinates: [  0.166666666666667,  0.833333333333333,  0.500000000000000 ]
    mass: 32.065000
    reduced_to: 28
  - symbol: S # 44
    coordinates: [  0.500000000000000,  0.833333333333333,  0.500000000000000 ]
    mass: 32.065000
    reduced_to: 28
  - symbol: S # 45
    coordinates: [  0.833333333333333,  0.833333333333333,  0.500000000000000 ]
    mass: 32.065000
    reduced_to: 28
  - symbol: S # 46
    coordinates: [  0.166666666666667,  0.166666666666667,  0.833333333333333 ]
    mass: 32.065000
    reduced_to: 28
  - symbol: S # 47
    coordinates: [  0.500000000000000,  0.166666666666667,  0.833333333333333 ]
    mass: 32.065000
    reduced_to: 28
  - symbol: S # 48
    coordinates: [  0.833333333333333,  0.166666666666667,  0.833333333333333 ]
    mass: 32.065000
    reduced_to: 28
  - symbol: S # 49
    coordinates: [  0.166666666666667,  0.500000000000000,  0.833333333333333 ]
    mass: 32.065000
    reduced_to: 28
  - symbol: S # 50
    coordinates: [  0.500000000000000,  0.500000000000000,  0.833333333333333 ]
    mass: 32.065000
    reduced_to: 28
  - symbol: S # 51
    coordinates: [  0.833333333333333,  0.500000000000000,  0.833333333333333 ]
    mass: 32.065000
    reduced_to: 28
  - symbol: S # 52
    coordinates: [  0.166666666666667,  0.833333333333333,  0.833333333333333 ]
    mass: 32.065000
    reduced_to: 28
  - symbol: S # 53
    coordinates: [  0.500000000000000,  0.833333333333333,  0.833333333333333 ]
    mass: 32.065000
    reduced_to: 28
  - symbol: S # 54
    coordinates: [  0.833333333333333,  0.833333333333333,  0.833333333333333 ]
    mass: 32.065000
    reduced_to: 28

displacements:
- atom:    1
  displacement:
    [   0.0086602535381956,  0.0000000000000000,  0.0050000008654169 ]
  forces:
  - [  -0.0373745400000000, -0.0000000700000000, -0.0215754200000000 ]
  - [   0.0056793800000000, -0.0000001400000000,  0.0032791800000000 ]
  - [   0.0055776500000000, -0.0000020900000000,  0.0032196300000000 ]
  - [  -0.0010381200000000,  0.0030853900000000,  0.0020800000000000 ]
  - [   0.0007091900000000,  0.0000002100000000,  0.0004096900000000 ]
  - [   0.0012794100000000, -0.0030650200000000, -0.0019302600000000 ]
  - [  -0.0010365100000000,  0.0030646000000000,  0.0020671900000000 ]
  - [   0.0012814600000000, -0.0030839600000000, -0.0019370000000000 ]
  - [   0.0007123200000000, -0.0000005000000000,  0.0004101500000000 ]
  - [  -0.0017202400000000,  0.0011583000000000,  0.0032591900000000 ]
  - [   0.0007089700000000, -0.0000002400000000,  0.0004092300000000 ]
  - [   0.0019524900000000, -0.0011578600000000, -0.0030998100000000 ]
  - [  -0.0004568000000000,  0.0004121800000000,  0.0004085300000000 ]
  - [   0.0001283100000000, -0.0004113800000000, -0.0005987500000000 ]
  - [   0.0003177500000000, -0.0000015700000000,  0.0001770200000000 ]
  - [  -0.0033497200000000,  0.0000051100000000, -0.0019379400000000 ]
  - [   0.0013042200000000, -0.0014014800000000,  0.0018964000000000 ]
  - [   0.0022907800000000,  0.0013961500000000,  0.0001790000000000 ]
  - [  -0.0017119200000000,  0.0011564100000000,  0.0032394300000000 ]
  - [   0.0019641700000000, -0.0011594000000000, -0.0031157600000000 ]
  - [   0.0007109000000000, -0.0000014400000000,  0.0004098900000000 ]
  - [  -0.0033542200000000, -0.0000032400000000, -0.0019298200000000 ]
  - [   0.0022956900000000,  0.0014021700000000,  0.0001829000000000 ]
  - [   0.0013035300000000, -0.0013967000000000,  0.0018907800000000 ]
  - [  -0.0004571700000000,  0.0004125500000000,  0.0004115200000000 ]
  - [   0.0003109100000000,  0.0000022400000000,  0.0001832300000000 ]
  - [   0.0001297000000000, -0.0004114200000000, -0.0006000800000000 ]
  - [  -0.0002544300000000, -0.0007479900000000, -0.0013683600000000 ]
  - [  -0.0013130600000000,  0.0007460500000000,  0.0004581600000000 ]
  - [   0.0031120100000000, -0.0000119100000000,  0.0017754100000000 ]
  - [   0.0007996700000000, -0.0000004800000000,  0.0004614200000000 ]
  - [  -0.0007117000000000,  0.0009837900000000,  0.0003039100000000 ]
  - [  -0.0000879500000000, -0.0009823100000000, -0.0007658400000000 ]
  - [   0.0049247800000000, -0.0025905100000000,  0.0049560300000000 ]
  - [  -0.0020996100000000,  0.0000043000000000, -0.0012129800000000 ]
  - [   0.0064929700000000,  0.0023884500000000,  0.0017981200000000 ]
  - [   0.0007984900000000,  0.0000002200000000,  0.0004592300000000 ]
  - [  -0.0009690500000000,  0.0002556900000000,  0.0007487800000000 ]
  - [   0.0001681500000000, -0.0002575600000000, -0.0012075600000000 ]
  - [   0.0005293400000000, -0.0000007500000000,  0.0003030000000000 ]
  - [  -0.0010599600000000, -0.0000000400000000, -0.0006086800000000 ]
  - [   0.0005295600000000, -0.0000008900000000,  0.0003089700000000 ]
  - [   0.0001678100000000, -0.0002551400000000, -0.0012108600000000 ]
  - [  -0.0009663700000000,  0.0002571700000000,  0.0007527500000000 ]
  - [   0.0007991400000000, -0.0000005700000000,  0.0004626300000000 ]
  - [   0.0067557600000000,  0.0025901500000000,  0.0017849700000000 ]
  - [  -0.0021007600000000, -0.0000017200000000, -0.0012098600000000 ]
  - [   0.0048028800000000, -0.0023874000000000,  0.0047223400000000 ]
  - [  -0.0000901700000000, -0.0009836800000000, -0.0007658900000000 ]
  - [  -0.0007091800000000,  0.0009812700000000,  0.0003064900000000 ]
  - [   0.0007986400000000, -0.0000010200000000,  0.0004568000000000 ]
  - [   0.0030968200000000,  0.0000121300000000,  0.0018069600000000 ]
  - [  -0.0013146700000000,  0.0007482500000000,  0.0004601400000000 ]
  - [  -0.0002564000000000, -0.0007443700000000, -0.0013641000000000 ]
- atom:   28
  displacement:
    [   0.0086602535381956,  0.0000000000000000,  0.0050000008654169 ]
  forces:
  - [  -0.0002617600000000, -0.0007442300000000, -0.0013649800000000 ]
  - [   0.0030895000000000,  0.0000209600000000,  0.0018186700000000 ]
  - [  -0.0013105500000000,  0.0007460900000000,  0.0004637000000000 ]
  - [   0.0048076800000000, -0.0024010400000000,  0.0047376000000000 ]
  - [   0.0067391700000000,  0.0025749600000000,  0.0017879000000000 ]
  - [  -0.0020982600000000, -0.0000052300000000, -0.0012079700000000 ]
  - [   0.0007951000000000,  0.0000037500000000,  0.0004582600000000 ]
  - [  -0.0000905700000000, -0.0009824900000000, -0.0007662000000000 ]
  - [  -0.0007053600000000,  0.0009823200000000,  0.0003067400000000 ]
  - [   0.0065050800000000,  0.0024020100000000,  0.0017959300000000 ]
  - [   0.0049180100000000, -0.0025753400000000,  0.0049413400000000 ]
  - [  -0.0020954400000000,  0.0000040800000000, -0.0012156100000000 ]
  - [   0.0031178800000000, -0.0000211100000000,  0.0017649300000000 ]
  - [  -0.0002525000000000, -0.0007487200000000, -0.0013689200000000 ]
  - [  -0.0013094100000000,  0.0007441800000000,  0.0004558800000000 ]
  - [  -0.0000905600000000, -0.0009817400000000, -0.0007677300000000 ]
  - [   0.0007995200000000, -0.0000018400000000,  0.0004576500000000 ]
  - [  -0.0007067200000000,  0.0009836700000000,  0.0003033300000000 ]
  - [   0.0007936200000000, -0.0000003900000000,  0.0004641600000000 ]
  - [   0.0001677300000000, -0.0002570500000000, -0.0012106000000000 ]
  - [  -0.0009636200000000,  0.0002546300000000,  0.0007519700000000 ]
  - [   0.0001652300000000, -0.0002551800000000, -0.0012091400000000 ]
  - [   0.0007992800000000, -0.0000007000000000,  0.0004604800000000 ]
  - [  -0.0009640500000000,  0.0002554000000000,  0.0007513500000000 ]
  - [   0.0005242300000000,  0.0000012700000000,  0.0003068000000000 ]
  - [   0.0005306500000000,  0.0000009000000000,  0.0003072800000000 ]
  - [  -0.0010565400000000, -0.0000002900000000, -0.0006122900000000 ]
  - [  -0.0354930000000000, -0.0000008700000000, -0.0204904200000000 ]
  - [   0.0036411900000000,  0.0000012300000000,  0.0021029600000000 ]
  - [   0.0036360400000000, -0.0000001800000000,  0.0020980400000000 ]
  - [  -0.0006447600000000,  0.0021645500000000,  0.0010354000000000 ]
  - [   0.0007980100000000,  0.0000021000000000,  0.0004616800000000 ]
  - [   0.0005823400000000, -0.0021655600000000, -0.0010720600000000 ]
  - [  -0.0006376700000000,  0.0021639800000000,  0.0010389600000000 ]
  - [   0.0005716400000000, -0.0021636700000000, -0.0010767300000000 ]
  - [   0.0008020300000000, -0.0000018600000000,  0.0004613700000000 ]
  - [  -0.0012594200000000,  0.0004282800000000,  0.0020966800000000 ]
  - [   0.0007969500000000, -0.0000000800000000,  0.0004613900000000 ]
  - [   0.0011959100000000, -0.0004294300000000, -0.0021341700000000 ]
  - [  -0.0003198200000000,  0.0003957100000000,  0.0004596100000000 ]
  - [   0.0002388200000000, -0.0003959400000000, -0.0005047600000000 ]
  - [   0.0001073500000000, -0.0000042800000000,  0.0000593300000000 ]
  - [  -0.0018598600000000,  0.0000048500000000, -0.0010755900000000 ]
  - [   0.0012191400000000, -0.0015791900000000,  0.0019975200000000 ]
  - [   0.0023273200000000,  0.0015709600000000,  0.0000634400000000 ]
  - [  -0.0012519100000000,  0.0004288600000000,  0.0021026000000000 ]
  - [   0.0011872400000000, -0.0004277800000000, -0.0021408100000000 ]
  - [   0.0008011800000000,  0.0000002200000000,  0.0004597300000000 ]
  - [  -0.0018632900000000, -0.0000037200000000, -0.0010713000000000 ]
  - [   0.0023367000000000,  0.0015795700000000,  0.0000598500000000 ]
  - [   0.0012158000000000, -0.0015705500000000,  0.0019805600000000 ]
  - [  -0.0003180400000000,  0.0003954900000000,  0.0004618100000000 ]
  - [   0.0001006700000000,  0.0000042800000000,  0.0000617400000000 ]
  - [   0.0002420800000000, -0.0003959000000000, -0.0005071700000000 ]
