phonopy:
  version: "2.45.1"
  frequency_unit_conversion_factor: 15.633302
  symmetry_tolerance: 1.00000e-05

space_group:
  type: "Fm-3m"
  number: 225
  Hall_symbol: "-F 4 2 3"

primitive_matrix:
- [ -1.000000000000000, -0.000000000000000,  0.000000000000000 ]
- [  1.000000000000000,  1.000000000000000,  1.000000000000000 ]
- [  0.000000000000000,  0.000000000000000, -1.000000000000000 ]

supercell_matrix:
- [   3,   0,   0 ]
- [   0,   3,   0 ]
- [   0,   0,   3 ]

primitive_cell:
  lattice:
  - [    -2.460841999052602,     3.480155438519331,     0.000000000000000 ] # a
  - [     1.230420501198555,     3.480155438519331,     2.131151889992162 ] # b
  - [     1.230420491232000,     3.480155428552776,    -2.131149846848400 ] # c
  points:
  - symbol: Sr # 1
    coordinates: [  0.000000000000000,  0.000000000000000,  0.000000000000000 ]
    mass: 87.620000
  - symbol: S # 2
    coordinates: [  0.500000000000000,  0.500000000000000,  0.500000000000000 ]
    mass: 32.065000
  reciprocal_lattice: # without 2pi
  - [    -0.270910020841020,     0.095781136400052,     0.000000000409504 ] # a*
  - [     0.135454945683811,     0.095781129666993,     0.234615017761888 ] # b*
  - [     0.135455075545129,     0.095781221492830,    -0.234615018843288 ] # c*

unit_cell:
  lattice:
  - [     3.691262500251157,     0.000000000000000,     2.131151889992162 ] # a
  - [     1.230420501198555,     3.480155438519331,     2.131151889992162 ] # b
  - [     0.000000009966555,     0.000000009966555,     4.262301736840563 ] # c
  points:
  - symbol: Sr # 1
    coordinates: [  0.000000000000000,  0.000000000000000,  0.000000000000000 ]
    mass: 87.620000
    reduced_to: 1
  - symbol: S # 2
    coordinates: [  0.500000000000000,  0.500000000000000,  0.500000000000000 ]
    mass: 32.065000
    reduced_to: 2

supercell:
  lattice:
  - [    11.073787500753472,     0.000000000000000,     6.393455669976486 ] # a
  - [     3.691261503595665,    10.440466315557993,     6.393455669976486 ] # b
  - [     0.000000029899665,     0.000000029899665,    12.786905210521688 ] # c
  points:
  - symbol: Sr # 1
    coordinates: [  0.000000000000000,  0.000000000000000,  0.000000000000000 ]
    mass: 87.620000
    reduced_to: 1
  - symbol: Sr # 2
    coordinates: [  0.333333333333333,  0.000000000000000,  0.000000000000000 ]
    mass: 87.620000
    reduced_to: 1
  - symbol: Sr # 3
    coordinates: [  0.666666666666667,  0.000000000000000,  0.000000000000000 ]
    mass: 87.620000
    reduced_to: 1
  - symbol: Sr # 4
    coordinates: [  0.000000000000000,  0.333333333333333,  0.000000000000000 ]
    mass: 87.620000
    reduced_to: 1
  - symbol: Sr # 5
    coordinates: [  0.333333333333333,  0.333333333333333,  0.000000000000000 ]
    mass: 87.620000
    reduced_to: 1
  - symbol: Sr # 6
    coordinates: [  0.666666666666667,  0.333333333333333,  0.000000000000000 ]
    mass: 87.620000
    reduced_to: 1
  - symbol: Sr # 7
    coordinates: [  0.000000000000000,  0.666666666666667,  0.000000000000000 ]
    mass: 87.620000
    reduced_to: 1
  - symbol: Sr # 8
    coordinates: [  0.333333333333333,  0.666666666666667,  0.000000000000000 ]
    mass: 87.620000
    reduced_to: 1
  - symbol: Sr # 9
    coordinates: [  0.666666666666667,  0.666666666666667,  0.000000000000000 ]
    mass: 87.620000
    reduced_to: 1
  - symbol: Sr # 10
    coordinates: [  0.000000000000000,  0.000000000000000,  0.333333333333333 ]
    mass: 87.620000
    reduced_to: 1
  - symbol: Sr # 11
    coordinates: [  0.333333333333333,  0.000000000000000,  0.333333333333333 ]
    mass: 87.620000
    reduced_to: 1
  - symbol: Sr # 12
    coordinates: [  0.666666666666667,  0.000000000000000,  0.333333333333333 ]
    mass: 87.620000
    reduced_to: 1
  - symbol: Sr # 13
    coordinates: [  0.000000000000000,  0.333333333333333,  0.333333333333333 ]
    mass: 87.620000
    reduced_to: 1
  - symbol: Sr # 14
    coordinates: [  0.333333333333333,  0.333333333333333,  0.333333333333333 ]
    mass: 87.620000
    reduced_to: 1
  - symbol: Sr # 15
    coordinates: [  0.666666666666667,  0.333333333333333,  0.333333333333333 ]
    mass: 87.620000
    reduced_to: 1
  - symbol: Sr # 16
    coordinates: [  0.000000000000000,  0.666666666666667,  0.333333333333333 ]
    mass: 87.620000
    reduced_to: 1
  - symbol: Sr # 17
    coordinates: [  0.333333333333333,  0.666666666666667,  0.333333333333333 ]
    mass: 87.620000
    reduced_to: 1
  - symbol: Sr # 18
    coordinates: [  0.666666666666667,  0.666666666666667,  0.333333333333333 ]
    mass: 87.620000
    reduced_to: 1
  - symbol: Sr # 19
    coordinates: [  0.000000000000000,  0.000000000000000,  0.666666666666667 ]
    mass: 87.620000
    reduced_to: 1
  - symbol: Sr # 20
    coordinates: [  0.333333333333333,  0.000000000000000,  0.666666666666667 ]
    mass: 87.620000
    reduced_to: 1
  - symbol: Sr # 21
    coordinates: [  0.666666666666667,  0.000000000000000,  0.666666666666667 ]
    mass: 87.620000
    reduced_to: 1
  - symbol: Sr # 22
    coordinates: [  0.000000000000000,  0.333333333333333,  0.666666666666667 ]
    mass: 87.620000
    reduced_to: 1
  - symbol: Sr # 23
    coordinates: [  0.333333333333333,  0.333333333333333,  0.666666666666667 ]
    mass: 87.620000
    reduced_to: 1
  - symbol: Sr # 24
    coordinates: [  0.666666666666667,  0.333333333333333,  0.666666666666667 ]
    mass: 87.620000
    reduced_to: 1
  - symbol: Sr # 25
    coordinates: [  0.000000000000000,  0.666666666666667,  0.666666666666667 ]
    mass: 87.620000
    reduced_to: 1
  - symbol: Sr # 26
    coordinates: [  0.333333333333333,  0.666666666666667,  0.666666666666667 ]
    mass: 87.620000
    reduced_to: 1
  - symbol: Sr # 27
    coordinates: [  0.666666666666667,  0.666666666666667,  0.666666666666667 ]
    mass: 87.620000
    reduced_to: 1
  - symbol: S # 28
    coordinates: [  0.166666666666667,  0.166666666666667,  0.166666666666667 ]
    mass: 32.065000
    reduced_to: 28
  - symbol: S # 29
    coordinates: [  0.500000000000000,  0.166666666666667,  0.166666666666667 ]
    mass: 32.065000
    reduced_to: 28
  - symbol: S # 30
    coordinates: [  0.833333333333333,  0.166666666666667,  0.166666666666667 ]
    mass: 32.065000
    reduced_to: 28
  - symbol: S # 31
    coordinates: [  0.166666666666667,  0.500000000000000,  0.166666666666667 ]
    mass: 32.065000
    reduced_to: 28
  - symbol: S # 32
    coordinates: [  0.500000000000000,  0.500000000000000,  0.166666666666667 ]
    mass: 32.065000
    reduced_to: 28
  - symbol: S # 33
    coordinates: [  0.833333333333333,  0.500000000000000,  0.166666666666667 ]
    mass: 32.065000
    reduced_to: 28
  - symbol: S # 34
    coordinates: [  0.166666666666667,  0.833333333333333,  0.166666666666667 ]
    mass: 32.065000
    reduced_to: 28
  - symbol: S # 35
    coordinates: [  0.500000000000000,  0.833333333333333,  0.166666666666667 ]
    mass: 32.065000
    reduced_to: 28
  - symbol: S # 36
    coordinates: [  0.833333333333333,  0.833333333333333,  0.166666666666667 ]
    mass: 32.065000
    reduced_to: 28
  - symbol: S # 37
    coordinates: [  0.166666666666667,  0.166666666666667,  0.500000000000000 ]
    mass: 32.065000
    reduced_to: 28
  - symbol: S # 38
    coordinates: [  0.500000000000000,  0.166666666666667,  0.500000000000000 ]
    mass: 32.065000
    reduced_to: 28
  - symbol: S # 39
    coordinates: [  0.833333333333333,  0.166666666666667,  0.500000000000000 ]
    mass: 32.065000
    reduced_to: 28
  - symbol: S # 40
    coordinates: [  0.166666666666667,  0.500000000000000,  0.500000000000000 ]
    mass: 32.065000
    reduced_to: 28
  - symbol: S # 41
    coordinates: [  0.500000000000000,  0.500000000000000,  0.500000000000000 ]
    mass: 32.065000
    reduced_to: 28
  - symbol: S # 42
    coordinates: [  0.833333333333333,  0.500000000000000,  0.500000000000000 ]
    mass: 32.065000
    reduced_to: 28
  - symbol: S # 43
    coordinates: [  0.166666666666667,  0.833333333333333,  0.500000000000000 ]
    mass: 32.065000
    reduced_to: 28
  - symbol: S # 44
    coordinates: [  0.500000000000000,  0.833333333333333,  0.500000000000000 ]
    mass: 32.065000
    reduced_to: 28
  - symbol: S # 45
    coordinates: [  0.833333333333333,  0.833333333333333,  0.500000000000000 ]
    mass: 32.065000
    reduced_to: 28
  - symbol: S # 46
    coordinates: [  0.166666666666667,  0.166666666666667,  0.833333333333333 ]
    mass: 32.065000
    reduced_to: 28
  - symbol: S # 47
    coordinates: [  0.500000000000000,  0.166666666666667,  0.833333333333333 ]
    mass: 32.065000
    reduced_to: 28
  - symbol: S # 48
    coordinates: [  0.833333333333333,  0.166666666666667,  0.833333333333333 ]
    mass: 32.065000
    reduced_to: 28
  - symbol: S # 49
    coordinates: [  0.166666666666667,  0.500000000000000,  0.833333333333333 ]
    mass: 32.065000
    reduced_to: 28
  - symbol: S # 50
    coordinates: [  0.500000000000000,  0.500000000000000,  0.833333333333333 ]
    mass: 32.065000
    reduced_to: 28
  - symbol: S # 51
    coordinates: [  0.833333333333333,  0.500000000000000,  0.833333333333333 ]
    mass: 32.065000
    reduced_to: 28
  - symbol: S # 52
    coordinates: [  0.166666666666667,  0.833333333333333,  0.833333333333333 ]
    mass: 32.065000
    reduced_to: 28
  - symbol: S # 53
    coordinates: [  0.500000000000000,  0.833333333333333,  0.833333333333333 ]
    mass: 32.065000
    reduced_to: 28
  - symbol: S # 54
    coordinates: [  0.833333333333333,  0.833333333333333,  0.833333333333333 ]
    mass: 32.065000
    reduced_to: 28

displacements:
- atom:    1
  displacement:
    [   0.0086602535381956,  0.0000000000000000,  0.0050000008654169 ]
  forces:
  - [  -0.0418434200000000,  0.0000027300000000, -0.0241575700000000 ]
  - [   0.0060382400000000,  0.0000038400000000,  0.0034866700000000 ]
  - [   0.0059330300000000,  0.0000023000000000,  0.0034220000000000 ]
  - [  -0.0009750900000000,  0.0032504500000000,  0.0021839900000000 ]
  - [   0.0006730500000000, -0.0000002200000000,  0.0003847700000000 ]
  - [   0.0013988000000000, -0.0032339700000000, -0.0019269600000000 ]
  - [  -0.0009717200000000,  0.0032300900000000,  0.0021723800000000 ]
  - [   0.0014022300000000, -0.0032528600000000, -0.0019350900000000 ]
  - [   0.0006740300000000, -0.0000005900000000,  0.0003952300000000 ]
  - [  -0.0017152800000000,  0.0011602100000000,  0.0034649900000000 ]
  - [   0.0006703000000000,  0.0000020100000000,  0.0003896000000000 ]
  - [   0.0021332400000000, -0.0011537400000000, -0.0031997300000000 ]
  - [  -0.0004433100000000,  0.0003927300000000,  0.0003884500000000 ]
  - [   0.0001172200000000, -0.0003946600000000, -0.0005779700000000 ]
  - [   0.0003114500000000, -0.0000033900000000,  0.0001783700000000 ]
  - [  -0.0033446700000000,  0.0000051000000000, -0.0019368400000000 ]
  - [   0.0013098600000000, -0.0014164000000000,  0.0019148700000000 ]
  - [   0.0023037800000000,  0.0014082300000000,  0.0001795400000000 ]
  - [  -0.0017049200000000,  0.0011587100000000,  0.0034433600000000 ]
  - [   0.0021432500000000, -0.0011554300000000, -0.0032143100000000 ]
  - [   0.0006728300000000,  0.0000036500000000,  0.0003887600000000 ]
  - [  -0.0033475200000000, -0.0000064200000000, -0.0019249100000000 ]
  - [   0.0023124000000000,  0.0014136500000000,  0.0001803400000000 ]
  - [   0.0013054500000000, -0.0014111000000000,  0.0019026000000000 ]
  - [  -0.0004418700000000,  0.0003931600000000,  0.0003897700000000 ]
  - [   0.0003064900000000,  0.0000003000000000,  0.0001791500000000 ]
  - [   0.0001164400000000, -0.0003932400000000, -0.0005783500000000 ]
  - [  -0.0002503100000000, -0.0007382800000000, -0.0013501900000000 ]
  - [  -0.0012916300000000,  0.0007370000000000,  0.0004588500000000 ]
  - [   0.0029516500000000, -0.0000163300000000,  0.0016763900000000 ]
  - [   0.0007910400000000,  0.0000019400000000,  0.0004611600000000 ]
  - [  -0.0007029300000000,  0.0009672200000000,  0.0002975600000000 ]
  - [  -0.0000878700000000, -0.0009600100000000, -0.0007601300000000 ]
  - [   0.0054266800000000, -0.0035438300000000,  0.0060231000000000 ]
  - [  -0.0020604000000000, -0.0000004700000000, -0.0011967800000000 ]
  - [   0.0076437000000000,  0.0033125500000000,  0.0017085700000000 ]
  - [   0.0007912500000000,  0.0000017700000000,  0.0004577200000000 ]
  - [  -0.0009532300000000,  0.0002539800000000,  0.0007362300000000 ]
  - [   0.0001593600000000, -0.0002544800000000, -0.0011902400000000 ]
  - [   0.0005171900000000,  0.0000015800000000,  0.0003008600000000 ]
  - [  -0.0010409300000000,  0.0000025400000000, -0.0006000200000000 ]
  - [   0.0005218500000000,  0.0000034200000000,  0.0003004500000000 ]
  - [   0.0001589200000000, -0.0002574100000000, -0.0011927900000000 ]
  - [  -0.0009476400000000,  0.0002515700000000,  0.0007333900000000 ]
  - [   0.0007903200000000, -0.0000047800000000,  0.0004578500000000 ]
  - [   0.0079294000000000,  0.0035414200000000,  0.0016878900000000 ]
  - [  -0.0020644500000000, -0.0000023400000000, -0.0011910300000000 ]
  - [   0.0052997000000000, -0.0033150000000000,  0.0057686900000000 ]
  - [  -0.0000927900000000, -0.0009621600000000, -0.0007595000000000 ]
  - [  -0.0007003300000000,  0.0009651100000000,  0.0003029300000000 ]
  - [   0.0007951200000000,  0.0000005800000000,  0.0004513700000000 ]
  - [   0.0029292200000000,  0.0000120000000000,  0.0017199900000000 ]
  - [  -0.0012935800000000,  0.0007369800000000,  0.0004539000000000 ]
  - [  -0.0002534500000000, -0.0007396900000000, -0.0013494200000000 ]
- atom:   28
  displacement:
    [   0.0086602535381956,  0.0000000000000000,  0.0050000008654169 ]
  forces:
  - [  -0.0002543200000000, -0.0007323700000000, -0.0013459300000000 ]
  - [   0.0029229300000000,  0.0000283800000000,  0.0017287300000000 ]
  - [  -0.0012945300000000,  0.0007425400000000,  0.0004579400000000 ]
  - [   0.0053053600000000, -0.0033323500000000,  0.0057839200000000 ]
  - [   0.0079147700000000,  0.0035238700000000,  0.0016876200000000 ]
  - [  -0.0020663100000000, -0.0000083800000000, -0.0011879400000000 ]
  - [   0.0007899400000000,  0.0000011100000000,  0.0004559600000000 ]
  - [  -0.0000928700000000, -0.0009655700000000, -0.0007569200000000 ]
  - [  -0.0006989100000000,  0.0009632300000000,  0.0003080900000000 ]
  - [   0.0076609100000000,  0.0033331700000000,  0.0017028800000000 ]
  - [   0.0054197500000000, -0.0035228100000000,  0.0060091400000000 ]
  - [  -0.0020613300000000,  0.0000083800000000, -0.0011968800000000 ]
  - [   0.0029566800000000, -0.0000265300000000,  0.0016679700000000 ]
  - [  -0.0002462100000000, -0.0007414500000000, -0.0013537900000000 ]
  - [  -0.0012925600000000,  0.0007334000000000,  0.0004557000000000 ]
  - [  -0.0000911700000000, -0.0009629200000000, -0.0007593500000000 ]
  - [   0.0007924200000000, -0.0000021000000000,  0.0004584600000000 ]
  - [  -0.0007002000000000,  0.0009643300000000,  0.0003000100000000 ]
  - [   0.0007896200000000,  0.0000038000000000,  0.0004569600000000 ]
  - [   0.0001588500000000, -0.0002508500000000, -0.0011891100000000 ]
  - [  -0.0009507800000000,  0.0002585700000000,  0.0007351500000000 ]
  - [   0.0001594500000000, -0.0002568200000000, -0.0011877000000000 ]
  - [   0.0007945600000000, -0.0000031900000000,  0.0004572000000000 ]
  - [  -0.0009538400000000,  0.0002511600000000,  0.0007333100000000 ]
  - [   0.0005169300000000, -0.0000003300000000,  0.0003001200000000 ]
  - [   0.0005207000000000, -0.0000015300000000,  0.0002994200000000 ]
  - [  -0.0010375400000000,  0.0000003800000000, -0.0006014500000000 ]
  - [  -0.0385799100000000,  0.0000005700000000, -0.0222748100000000 ]
  - [   0.0035017200000000,  0.0000009200000000,  0.0020250800000000 ]
  - [   0.0034788900000000, -0.0000002200000000,  0.0020068700000000 ]
  - [  -0.0006467200000000,  0.0020905700000000,  0.0009966700000000 ]
  - [   0.0007777700000000,  0.0000043900000000,  0.0004487800000000 ]
  - [   0.0005429600000000, -0.0020795600000000, -0.0010555700000000 ]
  - [  -0.0006415600000000,  0.0020791300000000,  0.0009935700000000 ]
  - [   0.0005402600000000, -0.0020926500000000, -0.0010596800000000 ]
  - [   0.0007778700000000, -0.0000059800000000,  0.0004509300000000 ]
  - [  -0.0012361500000000,  0.0004206800000000,  0.0020160300000000 ]
  - [   0.0007777600000000,  0.0000004800000000,  0.0004535000000000 ]
  - [   0.0011276200000000, -0.0004195200000000, -0.0020701900000000 ]
  - [  -0.0003166200000000,  0.0003882200000000,  0.0004511900000000 ]
  - [   0.0002301100000000, -0.0003839300000000, -0.0004968400000000 ]
  - [   0.0001166500000000,  0.0000000100000000,  0.0000608300000000 ]
  - [  -0.0018259500000000, -0.0000013600000000, -0.0010551600000000 ]
  - [   0.0012979900000000, -0.0016774600000000,  0.0021138900000000 ]
  - [   0.0024638900000000,  0.0016595300000000,  0.0000669900000000 ]
  - [  -0.0012289400000000,  0.0004217200000000,  0.0020123800000000 ]
  - [   0.0011285000000000, -0.0004190200000000, -0.0020799200000000 ]
  - [   0.0007805400000000,  0.0000002900000000,  0.0004492000000000 ]
  - [  -0.0018283100000000,  0.0000001000000000, -0.0010544000000000 ]
  - [   0.0024789000000000,  0.0016766700000000,  0.0000659900000000 ]
  - [   0.0012926400000000, -0.0016621200000000,  0.0020982700000000 ]
  - [  -0.0003137800000000,  0.0003823900000000,  0.0004521700000000 ]
  - [   0.0001108900000000,  0.0000019800000000,  0.0000641700000000 ]
  - [   0.0002306900000000, -0.0003909900000000, -0.0004995000000000 ]
