phonopy:
  version: "2.45.1"
  frequency_unit_conversion_factor: 15.633302
  symmetry_tolerance: 1.00000e-05

space_group:
  type: "Fm-3m"
  number: 225
  Hall_symbol: "-F 4 2 3"

primitive_matrix:
- [  0.000000000000000,  1.000000000000000,  0.000000000000000 ]
- [ -0.000000000000000, -0.000000000000000,  1.000000000000000 ]
- [  1.000000000000000,  0.000000000000000,  0.000000000000000 ]

supercell_matrix:
- [   3,   0,   0 ]
- [   0,   3,   0 ]
- [   0,   0,   3 ]

primitive_cell:
  lattice:
  - [     0.000000000000000,     0.000000000000000,     5.259820200702927 ] # a
  - [     4.555138600837251,    -0.000000010033223,     2.629910607029216 ] # b
  - [     1.518378179127334,     4.294626060214553,     2.629910607029216 ] # c
  points:
  - symbol: K # 1
    coordinates: [  0.750000000000000,  0.750000000000000,  0.750000000000000 ]
    mass: 39.098300
  - symbol: K # 2
    coordinates: [  0.250000000000000,  0.250000000000000,  0.250000000000000 ]
    mass: 39.098300
  - symbol: S # 3
    coordinates: [  0.000000000000000,  0.000000000000000,  0.000000000000000 ]
    mass: 32.065000
  reciprocal_lattice: # without 2pi
  - [    -0.109766165406406,    -0.077616430696562,     0.190120567213754 ] # a*
  - [     0.219532288004904,    -0.077616311885345,     0.000000000000000 ] # b*
  - [     0.000000000512877,     0.232849143371356,     0.000000000000000 ] # c*

unit_cell:
  lattice:
  - [     4.555138600837251,    -0.000000010033223,     2.629910607029216 ] # a
  - [     1.518378179127334,     4.294626060214553,     2.629910607029216 ] # b
  - [     0.000000000000000,     0.000000000000000,     5.259820200702927 ] # c
  points:
  - symbol: K # 1
    coordinates: [  0.750000000000000,  0.750000000000000,  0.750000000000000 ]
    mass: 39.098300
    reduced_to: 1
  - symbol: K # 2
    coordinates: [  0.250000000000000,  0.250000000000000,  0.250000000000000 ]
    mass: 39.098300
    reduced_to: 2
  - symbol: S # 3
    coordinates: [  0.000000000000000,  0.000000000000000,  0.000000000000000 ]
    mass: 32.065000
    reduced_to: 3

supercell:
  lattice:
  - [    13.665415802511754,    -0.000000030099669,     7.889731821087648 ] # a
  - [     4.555134537382003,    12.883878180643659,     7.889731821087648 ] # b
  - [     0.000000000000000,     0.000000000000000,    15.779460602108781 ] # c
  points:
  - symbol: K # 1
    coordinates: [  0.250000000000000,  0.250000000000000,  0.250000000000000 ]
    mass: 39.098300
    reduced_to: 1
  - symbol: K # 2
    coordinates: [  0.583333333333333,  0.250000000000000,  0.250000000000000 ]
    mass: 39.098300
    reduced_to: 1
  - symbol: K # 3
    coordinates: [  0.916666666666667,  0.250000000000000,  0.250000000000000 ]
    mass: 39.098300
    reduced_to: 1
  - symbol: K # 4
    coordinates: [  0.250000000000000,  0.583333333333333,  0.250000000000000 ]
    mass: 39.098300
    reduced_to: 1
  - symbol: K # 5
    coordinates: [  0.583333333333333,  0.583333333333333,  0.250000000000000 ]
    mass: 39.098300
    reduced_to: 1
  - symbol: K # 6
    coordinates: [  0.916666666666667,  0.583333333333333,  0.250000000000000 ]
    mass: 39.098300
    reduced_to: 1
  - symbol: K # 7
    coordinates: [  0.250000000000000,  0.916666666666667,  0.250000000000000 ]
    mass: 39.098300
    reduced_to: 1
  - symbol: K # 8
    coordinates: [  0.583333333333333,  0.916666666666667,  0.250000000000000 ]
    mass: 39.098300
    reduced_to: 1
  - symbol: K # 9
    coordinates: [  0.916666666666667,  0.916666666666667,  0.250000000000000 ]
    mass: 39.098300
    reduced_to: 1
  - symbol: K # 10
    coordinates: [  0.250000000000000,  0.250000000000000,  0.583333333333333 ]
    mass: 39.098300
    reduced_to: 1
  - symbol: K # 11
    coordinates: [  0.583333333333333,  0.250000000000000,  0.583333333333333 ]
    mass: 39.098300
    reduced_to: 1
  - symbol: K # 12
    coordinates: [  0.916666666666667,  0.250000000000000,  0.583333333333333 ]
    mass: 39.098300
    reduced_to: 1
  - symbol: K # 13
    coordinates: [  0.250000000000000,  0.583333333333333,  0.583333333333333 ]
    mass: 39.098300
    reduced_to: 1
  - symbol: K # 14
    coordinates: [  0.583333333333333,  0.583333333333333,  0.583333333333333 ]
    mass: 39.098300
    reduced_to: 1
  - symbol: K # 15
    coordinates: [  0.916666666666667,  0.583333333333333,  0.583333333333333 ]
    mass: 39.098300
    reduced_to: 1
  - symbol: K # 16
    coordinates: [  0.250000000000000,  0.916666666666667,  0.583333333333333 ]
    mass: 39.098300
    reduced_to: 1
  - symbol: K # 17
    coordinates: [  0.583333333333333,  0.916666666666667,  0.583333333333333 ]
    mass: 39.098300
    reduced_to: 1
  - symbol: K # 18
    coordinates: [  0.916666666666667,  0.916666666666667,  0.583333333333333 ]
    mass: 39.098300
    reduced_to: 1
  - symbol: K # 19
    coordinates: [  0.250000000000000,  0.250000000000000,  0.916666666666667 ]
    mass: 39.098300
    reduced_to: 1
  - symbol: K # 20
    coordinates: [  0.583333333333333,  0.250000000000000,  0.916666666666667 ]
    mass: 39.098300
    reduced_to: 1
  - symbol: K # 21
    coordinates: [  0.916666666666667,  0.250000000000000,  0.916666666666667 ]
    mass: 39.098300
    reduced_to: 1
  - symbol: K # 22
    coordinates: [  0.250000000000000,  0.583333333333333,  0.916666666666667 ]
    mass: 39.098300
    reduced_to: 1
  - symbol: K # 23
    coordinates: [  0.583333333333333,  0.583333333333333,  0.916666666666667 ]
    mass: 39.098300
    reduced_to: 1
  - symbol: K # 24
    coordinates: [  0.916666666666667,  0.583333333333333,  0.916666666666667 ]
    mass: 39.098300
    reduced_to: 1
  - symbol: K # 25
    coordinates: [  0.250000000000000,  0.916666666666667,  0.916666666666667 ]
    mass: 39.098300
    reduced_to: 1
  - symbol: K # 26
    coordinates: [  0.583333333333333,  0.916666666666667,  0.916666666666667 ]
    mass: 39.098300
    reduced_to: 1
  - symbol: K # 27
    coordinates: [  0.916666666666667,  0.916666666666667,  0.916666666666667 ]
    mass: 39.098300
    reduced_to: 1
  - symbol: K # 28
    coordinates: [  0.083333333333333,  0.083333333333333,  0.083333333333333 ]
    mass: 39.098300
    reduced_to: 28
  - symbol: K # 29
    coordinates: [  0.416666666666667,  0.083333333333333,  0.083333333333333 ]
    mass: 39.098300
    reduced_to: 28
  - symbol: K # 30
    coordinates: [  0.750000000000000,  0.083333333333333,  0.083333333333333 ]
    mass: 39.098300
    reduced_to: 28
  - symbol: K # 31
    coordinates: [  0.083333333333333,  0.416666666666667,  0.083333333333333 ]
    mass: 39.098300
    reduced_to: 28
  - symbol: K # 32
    coordinates: [  0.416666666666667,  0.416666666666667,  0.083333333333333 ]
    mass: 39.098300
    reduced_to: 28
  - symbol: K # 33
    coordinates: [  0.750000000000000,  0.416666666666667,  0.083333333333333 ]
    mass: 39.098300
    reduced_to: 28
  - symbol: K # 34
    coordinates: [  0.083333333333333,  0.750000000000000,  0.083333333333333 ]
    mass: 39.098300
    reduced_to: 28
  - symbol: K # 35
    coordinates: [  0.416666666666667,  0.750000000000000,  0.083333333333333 ]
    mass: 39.098300
    reduced_to: 28
  - symbol: K # 36
    coordinates: [  0.750000000000000,  0.750000000000000,  0.083333333333333 ]
    mass: 39.098300
    reduced_to: 28
  - symbol: K # 37
    coordinates: [  0.083333333333333,  0.083333333333333,  0.416666666666667 ]
    mass: 39.098300
    reduced_to: 28
  - symbol: K # 38
    coordinates: [  0.416666666666667,  0.083333333333333,  0.416666666666667 ]
    mass: 39.098300
    reduced_to: 28
  - symbol: K # 39
    coordinates: [  0.750000000000000,  0.083333333333333,  0.416666666666667 ]
    mass: 39.098300
    reduced_to: 28
  - symbol: K # 40
    coordinates: [  0.083333333333333,  0.416666666666667,  0.416666666666667 ]
    mass: 39.098300
    reduced_to: 28
  - symbol: K # 41
    coordinates: [  0.416666666666667,  0.416666666666667,  0.416666666666667 ]
    mass: 39.098300
    reduced_to: 28
  - symbol: K # 42
    coordinates: [  0.750000000000000,  0.416666666666667,  0.416666666666667 ]
    mass: 39.098300
    reduced_to: 28
  - symbol: K # 43
    coordinates: [  0.083333333333333,  0.750000000000000,  0.416666666666667 ]
    mass: 39.098300
    reduced_to: 28
  - symbol: K # 44
    coordinates: [  0.416666666666667,  0.750000000000000,  0.416666666666667 ]
    mass: 39.098300
    reduced_to: 28
  - symbol: K # 45
    coordinates: [  0.750000000000000,  0.750000000000000,  0.416666666666667 ]
    mass: 39.098300
    reduced_to: 28
  - symbol: K # 46
    coordinates: [  0.083333333333333,  0.083333333333333,  0.750000000000000 ]
    mass: 39.098300
    reduced_to: 28
  - symbol: K # 47
    coordinates: [  0.416666666666667,  0.083333333333333,  0.750000000000000 ]
    mass: 39.098300
    reduced_to: 28
  - symbol: K # 48
    coordinates: [  0.750000000000000,  0.083333333333333,  0.750000000000000 ]
    mass: 39.098300
    reduced_to: 28
  - symbol: K # 49
    coordinates: [  0.083333333333333,  0.416666666666667,  0.750000000000000 ]
    mass: 39.098300
    reduced_to: 28
  - symbol: K # 50
    coordinates: [  0.416666666666667,  0.416666666666667,  0.750000000000000 ]
    mass: 39.098300
    reduced_to: 28
  - symbol: K # 51
    coordinates: [  0.750000000000000,  0.416666666666667,  0.750000000000000 ]
    mass: 39.098300
    reduced_to: 28
  - symbol: K # 52
    coordinates: [  0.083333333333333,  0.750000000000000,  0.750000000000000 ]
    mass: 39.098300
    reduced_to: 28
  - symbol: K # 53
    coordinates: [  0.416666666666667,  0.750000000000000,  0.750000000000000 ]
    mass: 39.098300
    reduced_to: 28
  - symbol: K # 54
    coordinates: [  0.750000000000000,  0.750000000000000,  0.750000000000000 ]
    mass: 39.098300
    reduced_to: 28
  - symbol: S # 55
    coordinates: [  0.000000000000000,  0.000000000000000,  0.000000000000000 ]
    mass: 32.065000
    reduced_to: 55
  - symbol: S # 56
    coordinates: [  0.333333333333333,  0.000000000000000,  0.000000000000000 ]
    mass: 32.065000
    reduced_to: 55
  - symbol: S # 57
    coordinates: [  0.666666666666667,  0.000000000000000,  0.000000000000000 ]
    mass: 32.065000
    reduced_to: 55
  - symbol: S # 58
    coordinates: [  0.000000000000000,  0.333333333333333,  0.000000000000000 ]
    mass: 32.065000
    reduced_to: 55
  - symbol: S # 59
    coordinates: [  0.333333333333333,  0.333333333333333,  0.000000000000000 ]
    mass: 32.065000
    reduced_to: 55
  - symbol: S # 60
    coordinates: [  0.666666666666667,  0.333333333333333,  0.000000000000000 ]
    mass: 32.065000
    reduced_to: 55
  - symbol: S # 61
    coordinates: [  0.000000000000000,  0.666666666666667,  0.000000000000000 ]
    mass: 32.065000
    reduced_to: 55
  - symbol: S # 62
    coordinates: [  0.333333333333333,  0.666666666666667,  0.000000000000000 ]
    mass: 32.065000
    reduced_to: 55
  - symbol: S # 63
    coordinates: [  0.666666666666667,  0.666666666666667,  0.000000000000000 ]
    mass: 32.065000
    reduced_to: 55
  - symbol: S # 64
    coordinates: [  0.000000000000000,  0.000000000000000,  0.333333333333333 ]
    mass: 32.065000
    reduced_to: 55
  - symbol: S # 65
    coordinates: [  0.333333333333333,  0.000000000000000,  0.333333333333333 ]
    mass: 32.065000
    reduced_to: 55
  - symbol: S # 66
    coordinates: [  0.666666666666667,  0.000000000000000,  0.333333333333333 ]
    mass: 32.065000
    reduced_to: 55
  - symbol: S # 67
    coordinates: [  0.000000000000000,  0.333333333333333,  0.333333333333333 ]
    mass: 32.065000
    reduced_to: 55
  - symbol: S # 68
    coordinates: [  0.333333333333333,  0.333333333333333,  0.333333333333333 ]
    mass: 32.065000
    reduced_to: 55
  - symbol: S # 69
    coordinates: [  0.666666666666667,  0.333333333333333,  0.333333333333333 ]
    mass: 32.065000
    reduced_to: 55
  - symbol: S # 70
    coordinates: [  0.000000000000000,  0.666666666666667,  0.333333333333333 ]
    mass: 32.065000
    reduced_to: 55
  - symbol: S # 71
    coordinates: [  0.333333333333333,  0.666666666666667,  0.333333333333333 ]
    mass: 32.065000
    reduced_to: 55
  - symbol: S # 72
    coordinates: [  0.666666666666667,  0.666666666666667,  0.333333333333333 ]
    mass: 32.065000
    reduced_to: 55
  - symbol: S # 73
    coordinates: [  0.000000000000000,  0.000000000000000,  0.666666666666667 ]
    mass: 32.065000
    reduced_to: 55
  - symbol: S # 74
    coordinates: [  0.333333333333333,  0.000000000000000,  0.666666666666667 ]
    mass: 32.065000
    reduced_to: 55
  - symbol: S # 75
    coordinates: [  0.666666666666667,  0.000000000000000,  0.666666666666667 ]
    mass: 32.065000
    reduced_to: 55
  - symbol: S # 76
    coordinates: [  0.000000000000000,  0.333333333333333,  0.666666666666667 ]
    mass: 32.065000
    reduced_to: 55
  - symbol: S # 77
    coordinates: [  0.333333333333333,  0.333333333333333,  0.666666666666667 ]
    mass: 32.065000
    reduced_to: 55
  - symbol: S # 78
    coordinates: [  0.666666666666667,  0.333333333333333,  0.666666666666667 ]
    mass: 32.065000
    reduced_to: 55
  - symbol: S # 79
    coordinates: [  0.000000000000000,  0.666666666666667,  0.666666666666667 ]
    mass: 32.065000
    reduced_to: 55
  - symbol: S # 80
    coordinates: [  0.333333333333333,  0.666666666666667,  0.666666666666667 ]
    mass: 32.065000
    reduced_to: 55
  - symbol: S # 81
    coordinates: [  0.666666666666667,  0.666666666666667,  0.666666666666667 ]
    mass: 32.065000
    reduced_to: 55

displacements:
- atom:    1
  displacement:
    [   0.0086602539475839, -0.0000000000190752,  0.0050000001563358 ]
  forces:
  - [  -0.0152230700000000, -0.0000902200000000, -0.0089358900000000 ]
  - [   0.0005646300000000, -0.0001388200000000,  0.0000986400000000 ]
  - [   0.0003692100000000,  0.0001389800000000,  0.0004414300000000 ]
  - [  -0.0001260000000000,  0.0005639500000000,  0.0000318500000000 ]
  - [   0.0001460100000000,  0.0000012000000000,  0.0000845500000000 ]
  - [  -0.0000368200000000, -0.0005647000000000, -0.0001248900000000 ]
  - [  -0.0001258200000000,  0.0001462500000000,  0.0000329300000000 ]
  - [  -0.0000356800000000, -0.0001466100000000, -0.0001250500000000 ]
  - [   0.0001454500000000,  0.0000000700000000,  0.0000833400000000 ]
  - [  -0.0003608800000000, -0.0001021600000000,  0.0004396700000000 ]
  - [   0.0001445200000000, -0.0000002000000000,  0.0000848900000000 ]
  - [   0.0002009700000000,  0.0001021000000000, -0.0005330400000000 ]
  - [  -0.0000525800000000,  0.0000702700000000,  0.0000847700000000 ]
  - [   0.0000466800000000, -0.0000690000000000, -0.0000868900000000 ]
  - [   0.0000047900000000,  0.0000004800000000,  0.0000035900000000 ]
  - [  -0.0002174200000000, -0.0000006800000000, -0.0001248100000000 ]
  - [   0.0000721700000000, -0.0000940400000000,  0.0001177200000000 ]
  - [   0.0001374500000000,  0.0000925100000000,  0.0000046900000000 ]
  - [  -0.0001640900000000,  0.0000364300000000,  0.0000985000000000 ]
  - [   0.0000027700000000, -0.0000377100000000, -0.0001911200000000 ]
  - [   0.0001457600000000, -0.0000003100000000,  0.0000848600000000 ]
  - [  -0.0002172200000000,  0.0000006600000000, -0.0001242700000000 ]
  - [   0.0001386400000000,  0.0000938500000000,  0.0000032400000000 ]
  - [   0.0000715900000000, -0.0000930100000000,  0.0001194700000000 ]
  - [  -0.0000531200000000,  0.0000703300000000,  0.0000849600000000 ]
  - [   0.0000060900000000,  0.0000002300000000,  0.0000056200000000 ]
  - [   0.0000461900000000, -0.0000701800000000, -0.0000871900000000 ]
  - [  -0.0000565000000000,  0.0000827300000000,  0.0001009000000000 ]
  - [  -0.0005894600000000,  0.0000026200000000, -0.0003357200000000 ]
  - [   0.0000604800000000, -0.0000827500000000, -0.0001007300000000 ]
  - [   0.0004317400000000, -0.0020622500000000,  0.0024483800000000 ]
  - [   0.0023471200000000,  0.0020811400000000, -0.0008593700000000 ]
  - [   0.0001771300000000,  0.0000011300000000,  0.0001023900000000 ]
  - [  -0.0001739800000000,  0.0000003300000000, -0.0001009000000000 ]
  - [   0.0001036600000000,  0.0000747100000000,  0.0000231500000000 ]
  - [   0.0000709700000000, -0.0000737300000000,  0.0000785400000000 ]
  - [   0.0020401500000000,  0.0024836000000000, -0.0003354500000000 ]
  - [   0.0007273400000000, -0.0025019500000000,  0.0019480300000000 ]
  - [   0.0001762900000000,  0.0000007600000000,  0.0001022900000000 ]
  - [  -0.0014778300000000, -0.0000037700000000, -0.0008581500000000 ]
  - [   0.0004059100000000,  0.0002070500000000,  0.0005748700000000 ]
  - [   0.0006928800000000, -0.0002034800000000,  0.0000643600000000 ]
  - [  -0.0000859800000000,  0.0001415600000000,  0.0000233300000000 ]
  - [   0.0001131600000000,  0.0000012400000000,  0.0000647100000000 ]
  - [  -0.0000246200000000, -0.0001412100000000, -0.0000843300000000 ]
  - [  -0.0001743800000000, -0.0000003700000000, -0.0000998000000000 ]
  - [   0.0000567600000000, -0.0000542000000000,  0.0001034500000000 ]
  - [   0.0001169800000000,  0.0000553900000000, -0.0000020500000000 ]
  - [  -0.0001317400000000,  0.0000110800000000,  0.0001032400000000 ]
  - [   0.0001123000000000, -0.0000006400000000,  0.0000645400000000 ]
  - [   0.0000222400000000, -0.0000105600000000, -0.0001636000000000 ]
  - [  -0.0000542200000000,  0.0000674800000000,  0.0000775100000000 ]
  - [   0.0000409600000000, -0.0000673600000000, -0.0000849200000000 ]
  - [   0.0000141000000000,  0.0000002300000000,  0.0000082000000000 ]
  - [  -0.0000120200000000,  0.0000005400000000, -0.0000073500000000 ]
  - [   0.0000449200000000, -0.0000546300000000, -0.0000669300000000 ]
  - [  -0.0000331700000000,  0.0000553200000000,  0.0000701800000000 ]
  - [  -0.0000919800000000, -0.0000479800000000, -0.0005511300000000 ]
  - [   0.0013762600000000, -0.0000008600000000,  0.0008073300000000 ]
  - [  -0.0005219400000000,  0.0000477400000000,  0.0001962300000000 ]
  - [   0.0001482400000000,  0.0004570600000000, -0.0001380600000000 ]
  - [  -0.0000477100000000, -0.0004595600000000,  0.0001960500000000 ]
  - [  -0.0001058900000000, -0.0000020600000000, -0.0000607400000000 ]
  - [  -0.0002115900000000, -0.0003888000000000, -0.0003405400000000 ]
  - [   0.0013794900000000,  0.0000109200000000,  0.0007991600000000 ]
  - [  -0.0004011700000000,  0.0003914200000000, -0.0000139300000000 ]
  - [   0.0052169200000000, -0.0013522600000000,  0.0008032900000000 ]
  - [   0.0033942800000000,  0.0014316000000000,  0.0042967100000000 ]
  - [  -0.0007067600000000, -0.0000009600000000, -0.0004092500000000 ]
  - [   0.0003419500000000, -0.0000018900000000,  0.0001948400000000 ]
  - [  -0.0001122900000000, -0.0003401400000000, -0.0002002900000000 ]
  - [  -0.0002278200000000,  0.0003358600000000,  0.0000019100000000 ]
  - [  -0.0001333200000000, -0.0003331900000000,  0.0003491300000000 ]
  - [   0.0002338300000000,  0.0003364000000000, -0.0002908700000000 ]
  - [  -0.0001043300000000,  0.0000013600000000, -0.0000610400000000 ]
  - [   0.0003398700000000, -0.0000001500000000,  0.0001934100000000 ]
  - [   0.0000099000000000,  0.0000030700000000, -0.0004095800000000 ]
  - [  -0.0003482100000000, -0.0000042400000000,  0.0002110100000000 ]
  - [   0.0000337100000000, -0.0000486300000000, -0.0000614700000000 ]
  - [   0.0000043100000000, -0.0000006800000000,  0.0000021900000000 ]
  - [  -0.0000371500000000,  0.0000462700000000,  0.0000554500000000 ]
- atom:   55
  displacement:
    [   0.0086602539475839, -0.0000000000190752,  0.0050000001563358 ]
  forces:
  - [  -0.0000117300000000,  0.0000004800000000, -0.0000060000000000 ]
  - [  -0.0001933300000000,  0.0002810400000000,  0.0003469400000000 ]
  - [   0.0002036000000000, -0.0002816700000000, -0.0003409500000000 ]
  - [   0.0001481300000000,  0.0001200900000000, -0.0001383100000000 ]
  - [  -0.0001051900000000,  0.0000009900000000, -0.0000606200000000 ]
  - [  -0.0000478800000000, -0.0001189100000000,  0.0001966000000000 ]
  - [  -0.0000905700000000,  0.0002897700000000, -0.0005505500000000 ]
  - [  -0.0005215100000000, -0.0002898800000000,  0.0001968400000000 ]
  - [   0.0013881900000000,  0.0000060100000000,  0.0007830200000000 ]
  - [   0.0000277900000000, -0.0002222400000000,  0.0000713000000000 ]
  - [  -0.0001063200000000, -0.0000003000000000, -0.0000604200000000 ]
  - [   0.0000741600000000,  0.0002216100000000, -0.0000118500000000 ]
  - [   0.0000323500000000, -0.0000487300000000, -0.0000603700000000 ]
  - [  -0.0000361900000000,  0.0000496400000000,  0.0000590800000000 ]
  - [   0.0000031400000000,  0.0000006300000000,  0.0000027300000000 ]
  - [   0.0003403800000000, -0.0000005900000000,  0.0001974300000000 ]
  - [  -0.0003495600000000, -0.0000037400000000,  0.0002123500000000 ]
  - [   0.0000080500000000,  0.0000023900000000, -0.0004072600000000 ]
  - [  -0.0003705000000000, -0.0005039500000000, -0.0000658800000000 ]
  - [  -0.0002414700000000,  0.0005017600000000, -0.0002875100000000 ]
  - [   0.0013805900000000, -0.0000171500000000,  0.0007983300000000 ]
  - [   0.0003404800000000,  0.0000006900000000,  0.0001979200000000 ]
  - [  -0.0002280600000000,  0.0003397800000000,  0.0000024400000000 ]
  - [  -0.0001128300000000, -0.0003386800000000, -0.0001975600000000 ]
  - [   0.0054217400000000, -0.0014334700000000,  0.0007901100000000 ]
  - [  -0.0007079100000000,  0.0000000800000000, -0.0004067500000000 ]
  - [   0.0033033100000000,  0.0013510200000000,  0.0041140900000000 ]
  - [   0.0033954400000000,  0.0014335200000000,  0.0042998700000000 ]
  - [  -0.0007071000000000, -0.0000011600000000, -0.0004092500000000 ]
  - [   0.0052154700000000, -0.0013512700000000,  0.0008044800000000 ]
  - [  -0.0001122200000000, -0.0003388100000000, -0.0001993000000000 ]
  - [  -0.0002290500000000,  0.0003390500000000,  0.0000026700000000 ]
  - [   0.0003410800000000,  0.0000012800000000,  0.0001978800000000 ]
  - [   0.0013811400000000,  0.0000170100000000,  0.0007966300000000 ]
  - [  -0.0002410500000000,  0.0005039900000000, -0.0002884900000000 ]
  - [  -0.0003710400000000, -0.0005018800000000, -0.0000643400000000 ]
  - [   0.0000091700000000,  0.0000032300000000, -0.0004094700000000 ]
  - [  -0.0003490400000000, -0.0000032800000000,  0.0002129600000000 ]
  - [   0.0003401200000000,  0.0000013300000000,  0.0001974000000000 ]
  - [   0.0000047900000000, -0.0000007100000000,  0.0000030500000000 ]
  - [  -0.0000365500000000,  0.0000482500000000,  0.0000601300000000 ]
  - [   0.0000325400000000, -0.0000476100000000, -0.0000619800000000 ]
  - [   0.0000756200000000,  0.0002221600000000, -0.0000111900000000 ]
  - [  -0.0001046800000000,  0.0000002900000000, -0.0000616500000000 ]
  - [   0.0000255800000000, -0.0002218000000000,  0.0000726800000000 ]
  - [   0.0013730600000000, -0.0000064900000000,  0.0008116400000000 ]
  - [  -0.0005225700000000, -0.0002888300000000,  0.0001986200000000 ]
  - [  -0.0000905300000000,  0.0002898900000000, -0.0005508300000000 ]
  - [  -0.0000447700000000, -0.0001201600000000,  0.0001982800000000 ]
  - [  -0.0001056100000000, -0.0000006300000000, -0.0000626000000000 ]
  - [   0.0001473500000000,  0.0001210900000000, -0.0001365400000000 ]
  - [   0.0002042400000000, -0.0002808000000000, -0.0003418400000000 ]
  - [  -0.0001928000000000,  0.0002811800000000,  0.0003492200000000 ]
  - [  -0.0000113200000000,  0.0000006700000000, -0.0000063800000000 ]
  - [  -0.0223372800000000,  0.0000011400000000, -0.0128967500000000 ]
  - [   0.0020101100000000,  0.0000009100000000,  0.0011592400000000 ]
  - [   0.0020144400000000,  0.0000003900000000,  0.0011626700000000 ]
  - [  -0.0002169300000000,  0.0016235700000000, -0.0002052000000000 ]
  - [   0.0003245800000000,  0.0000006200000000,  0.0001885100000000 ]
  - [  -0.0002799200000000, -0.0016233800000000, -0.0000862700000000 ]
  - [  -0.0002124400000000,  0.0016213800000000, -0.0002001700000000 ]
  - [  -0.0002858600000000, -0.0016244900000000, -0.0000859900000000 ]
  - [   0.0003242600000000, -0.0000027300000000,  0.0001872200000000 ]
  - [  -0.0010033900000000, -0.0006045700000000,  0.0011614500000000 ]
  - [   0.0003245700000000,  0.0000000100000000,  0.0001873400000000 ]
  - [   0.0005065500000000,  0.0006038800000000, -0.0014498800000000 ]
  - [   0.0000391300000000,  0.0001016700000000,  0.0001873700000000 ]
  - [   0.0001808700000000, -0.0001010700000000, -0.0000620600000000 ]
  - [  -0.0002188800000000, -0.0000009200000000, -0.0001278500000000 ]
  - [  -0.0001457400000000,  0.0000004800000000, -0.0000875900000000 ]
  - [  -0.0000210900000000, -0.0002838100000000,  0.0002188100000000 ]
  - [   0.0001800700000000,  0.0002803400000000, -0.0001272100000000 ]
  - [  -0.0010005300000000, -0.0006020200000000,  0.0011644400000000 ]
  - [   0.0005027600000000,  0.0006065400000000, -0.0014521200000000 ]
  - [   0.0003257100000000,  0.0000011300000000,  0.0001869300000000 ]
  - [  -0.0001493900000000, -0.0000016400000000, -0.0000866100000000 ]
  - [   0.0001802300000000,  0.0002833100000000, -0.0001274200000000 ]
  - [  -0.0000191800000000, -0.0002834300000000,  0.0002188800000000 ]
  - [   0.0000404600000000,  0.0001008700000000,  0.0001863800000000 ]
  - [  -0.0002205200000000, -0.0000006200000000, -0.0001276400000000 ]
  - [   0.0001812800000000, -0.0001037800000000, -0.0000632900000000 ]
