phonopy:
  version: "2.45.1"
  frequency_unit_conversion_factor: 15.633302
  symmetry_tolerance: 1.00000e-05

space_group:
  type: "Fm-3m"
  number: 225
  Hall_symbol: "-F 4 2 3"

primitive_matrix:
- [  0.000000000000000,  1.000000000000000,  0.000000000000000 ]
- [ -0.000000000000000,  0.000000000000000,  1.000000000000000 ]
- [  1.000000000000000,  0.000000000000000,  0.000000000000000 ]

supercell_matrix:
- [   3,   0,   0 ]
- [   0,   3,   0 ]
- [   0,   0,   3 ]

primitive_cell:
  lattice:
  - [     0.000000000000000,     0.000000000000000,     5.242403449999999 ] # a
  - [     4.540055250000000,    -0.000000010000000,     2.621202229999999 ] # b
  - [     1.513350400000000,     4.280405340000000,     2.621202229999999 ] # c
  points:
  - symbol: K # 1
    coordinates: [  0.750000000000000,  0.750000000000000,  0.750000000000000 ]
    mass: 39.098300
  - symbol: K # 2
    coordinates: [  0.250000000000000,  0.250000000000000,  0.250000000000000 ]
    mass: 39.098300
  - symbol: S # 3
    coordinates: [  0.000000000000000,  0.000000000000000,  0.000000000000000 ]
    mass: 32.065000
  reciprocal_lattice: # without 2pi
  - [    -0.110130839731214,    -0.077874294486861,     0.190752201645221 ] # a*
  - [     0.220261636512300,    -0.077874175280919,     0.000000000000000 ] # b*
  - [     0.000000000514581,     0.233622734248168,     0.000000000000000 ] # c*

unit_cell:
  lattice:
  - [     4.540055250000000,    -0.000000010000000,     2.621202229999999 ] # a
  - [     1.513350400000000,     4.280405340000000,     2.621202229999999 ] # b
  - [     0.000000000000000,     0.000000000000000,     5.242403450000000 ] # c
  points:
  - symbol: K # 1
    coordinates: [  0.750000000000000,  0.750000000000000,  0.750000000000000 ]
    mass: 39.098300
    reduced_to: 1
  - symbol: K # 2
    coordinates: [  0.250000000000000,  0.250000000000000,  0.250000000000000 ]
    mass: 39.098300
    reduced_to: 2
  - symbol: S # 3
    coordinates: [  0.000000000000000,  0.000000000000000,  0.000000000000000 ]
    mass: 32.065000
    reduced_to: 3

supercell:
  lattice:
  - [    13.620165750000000,    -0.000000030000000,     7.863606689999997 ] # a
  - [     4.540051200000000,    12.841216019999999,     7.863606689999997 ] # b
  - [     0.000000000000000,     0.000000000000000,    15.727210350000000 ] # c
  points:
  - symbol: K # 1
    coordinates: [  0.250000000000000,  0.250000000000000,  0.250000000000000 ]
    mass: 39.098300
    reduced_to: 1
  - symbol: K # 2
    coordinates: [  0.583333333333333,  0.250000000000000,  0.250000000000000 ]
    mass: 39.098300
    reduced_to: 1
  - symbol: K # 3
    coordinates: [  0.916666666666667,  0.250000000000000,  0.250000000000000 ]
    mass: 39.098300
    reduced_to: 1
  - symbol: K # 4
    coordinates: [  0.250000000000000,  0.583333333333333,  0.250000000000000 ]
    mass: 39.098300
    reduced_to: 1
  - symbol: K # 5
    coordinates: [  0.583333333333333,  0.583333333333333,  0.250000000000000 ]
    mass: 39.098300
    reduced_to: 1
  - symbol: K # 6
    coordinates: [  0.916666666666667,  0.583333333333333,  0.250000000000000 ]
    mass: 39.098300
    reduced_to: 1
  - symbol: K # 7
    coordinates: [  0.250000000000000,  0.916666666666667,  0.250000000000000 ]
    mass: 39.098300
    reduced_to: 1
  - symbol: K # 8
    coordinates: [  0.583333333333333,  0.916666666666667,  0.250000000000000 ]
    mass: 39.098300
    reduced_to: 1
  - symbol: K # 9
    coordinates: [  0.916666666666667,  0.916666666666667,  0.250000000000000 ]
    mass: 39.098300
    reduced_to: 1
  - symbol: K # 10
    coordinates: [  0.250000000000000,  0.250000000000000,  0.583333333333333 ]
    mass: 39.098300
    reduced_to: 1
  - symbol: K # 11
    coordinates: [  0.583333333333333,  0.250000000000000,  0.583333333333333 ]
    mass: 39.098300
    reduced_to: 1
  - symbol: K # 12
    coordinates: [  0.916666666666667,  0.250000000000000,  0.583333333333333 ]
    mass: 39.098300
    reduced_to: 1
  - symbol: K # 13
    coordinates: [  0.250000000000000,  0.583333333333333,  0.583333333333333 ]
    mass: 39.098300
    reduced_to: 1
  - symbol: K # 14
    coordinates: [  0.583333333333333,  0.583333333333333,  0.583333333333333 ]
    mass: 39.098300
    reduced_to: 1
  - symbol: K # 15
    coordinates: [  0.916666666666667,  0.583333333333333,  0.583333333333333 ]
    mass: 39.098300
    reduced_to: 1
  - symbol: K # 16
    coordinates: [  0.250000000000000,  0.916666666666667,  0.583333333333333 ]
    mass: 39.098300
    reduced_to: 1
  - symbol: K # 17
    coordinates: [  0.583333333333333,  0.916666666666667,  0.583333333333333 ]
    mass: 39.098300
    reduced_to: 1
  - symbol: K # 18
    coordinates: [  0.916666666666667,  0.916666666666667,  0.583333333333333 ]
    mass: 39.098300
    reduced_to: 1
  - symbol: K # 19
    coordinates: [  0.250000000000000,  0.250000000000000,  0.916666666666667 ]
    mass: 39.098300
    reduced_to: 1
  - symbol: K # 20
    coordinates: [  0.583333333333333,  0.250000000000000,  0.916666666666667 ]
    mass: 39.098300
    reduced_to: 1
  - symbol: K # 21
    coordinates: [  0.916666666666667,  0.250000000000000,  0.916666666666667 ]
    mass: 39.098300
    reduced_to: 1
  - symbol: K # 22
    coordinates: [  0.250000000000000,  0.583333333333333,  0.916666666666667 ]
    mass: 39.098300
    reduced_to: 1
  - symbol: K # 23
    coordinates: [  0.583333333333333,  0.583333333333333,  0.916666666666667 ]
    mass: 39.098300
    reduced_to: 1
  - symbol: K # 24
    coordinates: [  0.916666666666667,  0.583333333333333,  0.916666666666667 ]
    mass: 39.098300
    reduced_to: 1
  - symbol: K # 25
    coordinates: [  0.250000000000000,  0.916666666666667,  0.916666666666667 ]
    mass: 39.098300
    reduced_to: 1
  - symbol: K # 26
    coordinates: [  0.583333333333333,  0.916666666666667,  0.916666666666667 ]
    mass: 39.098300
    reduced_to: 1
  - symbol: K # 27
    coordinates: [  0.916666666666667,  0.916666666666667,  0.916666666666667 ]
    mass: 39.098300
    reduced_to: 1
  - symbol: K # 28
    coordinates: [  0.083333333333333,  0.083333333333333,  0.083333333333333 ]
    mass: 39.098300
    reduced_to: 28
  - symbol: K # 29
    coordinates: [  0.416666666666667,  0.083333333333333,  0.083333333333333 ]
    mass: 39.098300
    reduced_to: 28
  - symbol: K # 30
    coordinates: [  0.750000000000000,  0.083333333333333,  0.083333333333333 ]
    mass: 39.098300
    reduced_to: 28
  - symbol: K # 31
    coordinates: [  0.083333333333333,  0.416666666666667,  0.083333333333333 ]
    mass: 39.098300
    reduced_to: 28
  - symbol: K # 32
    coordinates: [  0.416666666666667,  0.416666666666667,  0.083333333333333 ]
    mass: 39.098300
    reduced_to: 28
  - symbol: K # 33
    coordinates: [  0.750000000000000,  0.416666666666667,  0.083333333333333 ]
    mass: 39.098300
    reduced_to: 28
  - symbol: K # 34
    coordinates: [  0.083333333333333,  0.750000000000000,  0.083333333333333 ]
    mass: 39.098300
    reduced_to: 28
  - symbol: K # 35
    coordinates: [  0.416666666666667,  0.750000000000000,  0.083333333333333 ]
    mass: 39.098300
    reduced_to: 28
  - symbol: K # 36
    coordinates: [  0.750000000000000,  0.750000000000000,  0.083333333333333 ]
    mass: 39.098300
    reduced_to: 28
  - symbol: K # 37
    coordinates: [  0.083333333333333,  0.083333333333333,  0.416666666666667 ]
    mass: 39.098300
    reduced_to: 28
  - symbol: K # 38
    coordinates: [  0.416666666666667,  0.083333333333333,  0.416666666666667 ]
    mass: 39.098300
    reduced_to: 28
  - symbol: K # 39
    coordinates: [  0.750000000000000,  0.083333333333333,  0.416666666666667 ]
    mass: 39.098300
    reduced_to: 28
  - symbol: K # 40
    coordinates: [  0.083333333333333,  0.416666666666667,  0.416666666666667 ]
    mass: 39.098300
    reduced_to: 28
  - symbol: K # 41
    coordinates: [  0.416666666666667,  0.416666666666667,  0.416666666666667 ]
    mass: 39.098300
    reduced_to: 28
  - symbol: K # 42
    coordinates: [  0.750000000000000,  0.416666666666667,  0.416666666666667 ]
    mass: 39.098300
    reduced_to: 28
  - symbol: K # 43
    coordinates: [  0.083333333333333,  0.750000000000000,  0.416666666666667 ]
    mass: 39.098300
    reduced_to: 28
  - symbol: K # 44
    coordinates: [  0.416666666666667,  0.750000000000000,  0.416666666666667 ]
    mass: 39.098300
    reduced_to: 28
  - symbol: K # 45
    coordinates: [  0.750000000000000,  0.750000000000000,  0.416666666666667 ]
    mass: 39.098300
    reduced_to: 28
  - symbol: K # 46
    coordinates: [  0.083333333333333,  0.083333333333333,  0.750000000000000 ]
    mass: 39.098300
    reduced_to: 28
  - symbol: K # 47
    coordinates: [  0.416666666666667,  0.083333333333333,  0.750000000000000 ]
    mass: 39.098300
    reduced_to: 28
  - symbol: K # 48
    coordinates: [  0.750000000000000,  0.083333333333333,  0.750000000000000 ]
    mass: 39.098300
    reduced_to: 28
  - symbol: K # 49
    coordinates: [  0.083333333333333,  0.416666666666667,  0.750000000000000 ]
    mass: 39.098300
    reduced_to: 28
  - symbol: K # 50
    coordinates: [  0.416666666666667,  0.416666666666667,  0.750000000000000 ]
    mass: 39.098300
    reduced_to: 28
  - symbol: K # 51
    coordinates: [  0.750000000000000,  0.416666666666667,  0.750000000000000 ]
    mass: 39.098300
    reduced_to: 28
  - symbol: K # 52
    coordinates: [  0.083333333333333,  0.750000000000000,  0.750000000000000 ]
    mass: 39.098300
    reduced_to: 28
  - symbol: K # 53
    coordinates: [  0.416666666666667,  0.750000000000000,  0.750000000000000 ]
    mass: 39.098300
    reduced_to: 28
  - symbol: K # 54
    coordinates: [  0.750000000000000,  0.750000000000000,  0.750000000000000 ]
    mass: 39.098300
    reduced_to: 28
  - symbol: S # 55
    coordinates: [  0.000000000000000,  0.000000000000000,  0.000000000000000 ]
    mass: 32.065000
    reduced_to: 55
  - symbol: S # 56
    coordinates: [  0.333333333333333,  0.000000000000000,  0.000000000000000 ]
    mass: 32.065000
    reduced_to: 55
  - symbol: S # 57
    coordinates: [  0.666666666666667,  0.000000000000000,  0.000000000000000 ]
    mass: 32.065000
    reduced_to: 55
  - symbol: S # 58
    coordinates: [  0.000000000000000,  0.333333333333333,  0.000000000000000 ]
    mass: 32.065000
    reduced_to: 55
  - symbol: S # 59
    coordinates: [  0.333333333333333,  0.333333333333333,  0.000000000000000 ]
    mass: 32.065000
    reduced_to: 55
  - symbol: S # 60
    coordinates: [  0.666666666666667,  0.333333333333333,  0.000000000000000 ]
    mass: 32.065000
    reduced_to: 55
  - symbol: S # 61
    coordinates: [  0.000000000000000,  0.666666666666667,  0.000000000000000 ]
    mass: 32.065000
    reduced_to: 55
  - symbol: S # 62
    coordinates: [  0.333333333333333,  0.666666666666667,  0.000000000000000 ]
    mass: 32.065000
    reduced_to: 55
  - symbol: S # 63
    coordinates: [  0.666666666666667,  0.666666666666667,  0.000000000000000 ]
    mass: 32.065000
    reduced_to: 55
  - symbol: S # 64
    coordinates: [  0.000000000000000,  0.000000000000000,  0.333333333333333 ]
    mass: 32.065000
    reduced_to: 55
  - symbol: S # 65
    coordinates: [  0.333333333333333,  0.000000000000000,  0.333333333333333 ]
    mass: 32.065000
    reduced_to: 55
  - symbol: S # 66
    coordinates: [  0.666666666666667,  0.000000000000000,  0.333333333333333 ]
    mass: 32.065000
    reduced_to: 55
  - symbol: S # 67
    coordinates: [  0.000000000000000,  0.333333333333333,  0.333333333333333 ]
    mass: 32.065000
    reduced_to: 55
  - symbol: S # 68
    coordinates: [  0.333333333333333,  0.333333333333333,  0.333333333333333 ]
    mass: 32.065000
    reduced_to: 55
  - symbol: S # 69
    coordinates: [  0.666666666666667,  0.333333333333333,  0.333333333333333 ]
    mass: 32.065000
    reduced_to: 55
  - symbol: S # 70
    coordinates: [  0.000000000000000,  0.666666666666667,  0.333333333333333 ]
    mass: 32.065000
    reduced_to: 55
  - symbol: S # 71
    coordinates: [  0.333333333333333,  0.666666666666667,  0.333333333333333 ]
    mass: 32.065000
    reduced_to: 55
  - symbol: S # 72
    coordinates: [  0.666666666666667,  0.666666666666667,  0.333333333333333 ]
    mass: 32.065000
    reduced_to: 55
  - symbol: S # 73
    coordinates: [  0.000000000000000,  0.000000000000000,  0.666666666666667 ]
    mass: 32.065000
    reduced_to: 55
  - symbol: S # 74
    coordinates: [  0.333333333333333,  0.000000000000000,  0.666666666666667 ]
    mass: 32.065000
    reduced_to: 55
  - symbol: S # 75
    coordinates: [  0.666666666666667,  0.000000000000000,  0.666666666666667 ]
    mass: 32.065000
    reduced_to: 55
  - symbol: S # 76
    coordinates: [  0.000000000000000,  0.333333333333333,  0.666666666666667 ]
    mass: 32.065000
    reduced_to: 55
  - symbol: S # 77
    coordinates: [  0.333333333333333,  0.333333333333333,  0.666666666666667 ]
    mass: 32.065000
    reduced_to: 55
  - symbol: S # 78
    coordinates: [  0.666666666666667,  0.333333333333333,  0.666666666666667 ]
    mass: 32.065000
    reduced_to: 55
  - symbol: S # 79
    coordinates: [  0.000000000000000,  0.666666666666667,  0.666666666666667 ]
    mass: 32.065000
    reduced_to: 55
  - symbol: S # 80
    coordinates: [  0.333333333333333,  0.666666666666667,  0.666666666666667 ]
    mass: 32.065000
    reduced_to: 55
  - symbol: S # 81
    coordinates: [  0.666666666666667,  0.666666666666667,  0.666666666666667 ]
    mass: 32.065000
    reduced_to: 55

displacements:
- atom:    1
  displacement:
    [   0.0086602539475839, -0.0000000000190752,  0.0050000001563358 ]
  forces:
  - [  -0.0156490700000000, -0.0000934700000000, -0.0091876500000000 ]
  - [   0.0005511600000000, -0.0001341400000000,  0.0001012200000000 ]
  - [   0.0003633400000000,  0.0001337000000000,  0.0004293900000000 ]
  - [  -0.0001277000000000,  0.0005483600000000,  0.0000339700000000 ]
  - [   0.0001454100000000,  0.0000000700000000,  0.0000846200000000 ]
  - [  -0.0000354500000000, -0.0005508500000000, -0.0001274100000000 ]
  - [  -0.0001267400000000,  0.0001488700000000,  0.0000338000000000 ]
  - [  -0.0000364000000000, -0.0001461400000000, -0.0001284600000000 ]
  - [   0.0001445500000000,  0.0000013300000000,  0.0000829500000000 ]
  - [  -0.0003552200000000, -0.0000960900000000,  0.0004280200000000 ]
  - [   0.0001454700000000, -0.0000002900000000,  0.0000843000000000 ]
  - [   0.0001931100000000,  0.0000963600000000, -0.0005220400000000 ]
  - [  -0.0000535400000000,  0.0000700200000000,  0.0000840900000000 ]
  - [   0.0000458700000000, -0.0000705300000000, -0.0000869300000000 ]
  - [   0.0000047900000000,  0.0000003100000000,  0.0000042800000000 ]
  - [  -0.0002193500000000,  0.0000005400000000, -0.0001266000000000 ]
  - [   0.0000715500000000, -0.0000939500000000,  0.0001183500000000 ]
  - [   0.0001374000000000,  0.0000947600000000,  0.0000032900000000 ]
  - [  -0.0001659400000000,  0.0000370400000000,  0.0000988100000000 ]
  - [   0.0000027800000000, -0.0000390700000000, -0.0001964400000000 ]
  - [   0.0001454100000000, -0.0000004800000000,  0.0000856400000000 ]
  - [  -0.0002199800000000, -0.0000001200000000, -0.0001294600000000 ]
  - [   0.0001387800000000,  0.0000935800000000,  0.0000050800000000 ]
  - [   0.0000720800000000, -0.0000939000000000,  0.0001186000000000 ]
  - [  -0.0000526300000000,  0.0000723200000000,  0.0000865000000000 ]
  - [   0.0000055400000000,  0.0000015100000000,  0.0000053400000000 ]
  - [   0.0000441700000000, -0.0000693800000000, -0.0000883800000000 ]
  - [  -0.0000561300000000,  0.0000831500000000,  0.0001028600000000 ]
  - [  -0.0006009700000000,  0.0000027700000000, -0.0003415300000000 ]
  - [   0.0000605700000000, -0.0000840200000000, -0.0001017800000000 ]
  - [   0.0004455000000000, -0.0020848200000000,  0.0024648300000000 ]
  - [   0.0023674400000000,  0.0021038800000000, -0.0008559000000000 ]
  - [   0.0001775000000000,  0.0000004500000000,  0.0001016300000000 ]
  - [  -0.0001750800000000,  0.0000010200000000, -0.0001011000000000 ]
  - [   0.0001041400000000,  0.0000758100000000,  0.0000225900000000 ]
  - [   0.0000712700000000, -0.0000730000000000,  0.0000785900000000 ]
  - [   0.0020658300000000,  0.0024970100000000, -0.0003418100000000 ]
  - [   0.0007337300000000, -0.0025162500000000,  0.0019723300000000 ]
  - [   0.0001776500000000,  0.0000000100000000,  0.0001029900000000 ]
  - [  -0.0014712800000000, -0.0000042800000000, -0.0008570700000000 ]
  - [   0.0004138600000000,  0.0002126200000000,  0.0005862300000000 ]
  - [   0.0007060400000000, -0.0002093900000000,  0.0000656100000000 ]
  - [  -0.0000861200000000,  0.0001424000000000,  0.0000236900000000 ]
  - [   0.0001137100000000,  0.0000021800000000,  0.0000654700000000 ]
  - [  -0.0000244800000000, -0.0001409900000000, -0.0000850500000000 ]
  - [  -0.0001742600000000, -0.0000000000000000, -0.0001014400000000 ]
  - [   0.0000579400000000, -0.0000550900000000,  0.0001031200000000 ]
  - [   0.0001179800000000,  0.0000555300000000, -0.0000016100000000 ]
  - [  -0.0001316400000000,  0.0000123800000000,  0.0001017400000000 ]
  - [   0.0001134500000000,  0.0000002000000000,  0.0000653400000000 ]
  - [   0.0000225900000000, -0.0000113500000000, -0.0001684300000000 ]
  - [  -0.0000537900000000,  0.0000676600000000,  0.0000775400000000 ]
  - [   0.0000414800000000, -0.0000665000000000, -0.0000890100000000 ]
  - [   0.0000141600000000,  0.0000009600000000,  0.0000060900000000 ]
  - [  -0.0000109000000000, -0.0000006100000000, -0.0000056200000000 ]
  - [   0.0000434100000000, -0.0000573000000000, -0.0000696500000000 ]
  - [  -0.0000326100000000,  0.0000544700000000,  0.0000727600000000 ]
  - [  -0.0000919900000000, -0.0000486300000000, -0.0005466900000000 ]
  - [   0.0013536700000000, -0.0000004400000000,  0.0007957200000000 ]
  - [  -0.0005192300000000,  0.0000489300000000,  0.0001977600000000 ]
  - [   0.0001466900000000,  0.0004538600000000, -0.0001351300000000 ]
  - [  -0.0000454000000000, -0.0004564000000000,  0.0001971600000000 ]
  - [  -0.0001066000000000, -0.0000021000000000, -0.0000612800000000 ]
  - [  -0.0002111100000000, -0.0003880000000000, -0.0003387300000000 ]
  - [   0.0013581100000000,  0.0000098000000000,  0.0007879700000000 ]
  - [  -0.0003982100000000,  0.0003886100000000, -0.0000136200000000 ]
  - [   0.0054929600000000, -0.0014563300000000,  0.0007927100000000 ]
  - [   0.0035229700000000,  0.0015397300000000,  0.0045476900000000 ]
  - [  -0.0007023800000000, -0.0000002000000000, -0.0004068000000000 ]
  - [   0.0003393100000000, -0.0000016800000000,  0.0001938500000000 ]
  - [  -0.0001118900000000, -0.0003382600000000, -0.0001995100000000 ]
  - [  -0.0002261000000000,  0.0003344800000000,  0.0000026800000000 ]
  - [  -0.0001320800000000, -0.0003317900000000,  0.0003447200000000 ]
  - [   0.0002331600000000,  0.0003323000000000, -0.0002874800000000 ]
  - [  -0.0001042100000000,  0.0000001900000000, -0.0000601700000000 ]
  - [   0.0003379800000000, -0.0000003500000000,  0.0001932100000000 ]
  - [   0.0000088300000000,  0.0000026800000000, -0.0004053700000000 ]
  - [  -0.0003456100000000, -0.0000031200000000,  0.0002111000000000 ]
  - [   0.0000331500000000, -0.0000491600000000, -0.0000597200000000 ]
  - [   0.0000043100000000, -0.0000009700000000,  0.0000041300000000 ]
  - [  -0.0000367400000000,  0.0000476400000000,  0.0000575500000000 ]
- atom:   55
  displacement:
    [   0.0086602539475839, -0.0000000000190752,  0.0050000001563358 ]
  forces:
  - [  -0.0000118600000000, -0.0000005800000000, -0.0000068900000000 ]
  - [  -0.0001928800000000,  0.0002794100000000,  0.0003469700000000 ]
  - [   0.0002028700000000, -0.0002806600000000, -0.0003397000000000 ]
  - [   0.0001464900000000,  0.0001187800000000, -0.0001351000000000 ]
  - [  -0.0001062500000000, -0.0000001200000000, -0.0000609200000000 ]
  - [  -0.0000458900000000, -0.0001197300000000,  0.0001941400000000 ]
  - [  -0.0000907200000000,  0.0002889900000000, -0.0005472700000000 ]
  - [  -0.0005204400000000, -0.0002860300000000,  0.0001936800000000 ]
  - [   0.0013658900000000,  0.0000074200000000,  0.0007692800000000 ]
  - [   0.0000269000000000, -0.0002208600000000,  0.0000720500000000 ]
  - [  -0.0001064700000000, -0.0000004700000000, -0.0000614500000000 ]
  - [   0.0000740400000000,  0.0002199800000000, -0.0000126400000000 ]
  - [   0.0000312900000000, -0.0000489100000000, -0.0000614900000000 ]
  - [  -0.0000371900000000,  0.0000489000000000,  0.0000593900000000 ]
  - [   0.0000028600000000,  0.0000006000000000,  0.0000033000000000 ]
  - [   0.0003383200000000,  0.0000009700000000,  0.0001951800000000 ]
  - [  -0.0003478800000000, -0.0000033600000000,  0.0002109300000000 ]
  - [   0.0000074000000000,  0.0000043000000000, -0.0004057700000000 ]
  - [  -0.0003695200000000, -0.0005011100000000, -0.0000669000000000 ]
  - [  -0.0002416600000000,  0.0004986500000000, -0.0002896500000000 ]
  - [   0.0013584300000000, -0.0000184400000000,  0.0007864000000000 ]
  - [   0.0003375500000000, -0.0000001900000000,  0.0001924900000000 ]
  - [  -0.0002267000000000,  0.0003367400000000,  0.0000041800000000 ]
  - [  -0.0001116900000000, -0.0003363300000000, -0.0001975800000000 ]
  - [   0.0057038700000000, -0.0015390600000000,  0.0007785400000000 ]
  - [  -0.0007034100000000,  0.0000013900000000, -0.0004039400000000 ]
  - [   0.0034289900000000,  0.0014566000000000,  0.0043577600000000 ]
  - [   0.0035249000000000,  0.0015406000000000,  0.0045510600000000 ]
  - [  -0.0007006700000000, -0.0000009400000000, -0.0004047700000000 ]
  - [   0.0054908900000000, -0.0014568300000000,  0.0007918700000000 ]
  - [  -0.0001105100000000, -0.0003362900000000, -0.0001971700000000 ]
  - [  -0.0002265100000000,  0.0003362700000000,  0.0000028500000000 ]
  - [   0.0003379900000000,  0.0000005100000000,  0.0001951100000000 ]
  - [   0.0013590800000000,  0.0000189400000000,  0.0007847200000000 ]
  - [  -0.0002401100000000,  0.0005017200000000, -0.0002873900000000 ]
  - [  -0.0003694900000000, -0.0004981200000000, -0.0000649800000000 ]
  - [   0.0000100900000000,  0.0000028900000000, -0.0004055500000000 ]
  - [  -0.0003463400000000, -0.0000034900000000,  0.0002094300000000 ]
  - [   0.0003386500000000,  0.0000006100000000,  0.0001961900000000 ]
  - [   0.0000051000000000, -0.0000006300000000,  0.0000011600000000 ]
  - [  -0.0000362600000000,  0.0000489700000000,  0.0000592500000000 ]
  - [   0.0000323800000000, -0.0000487400000000, -0.0000612900000000 ]
  - [   0.0000760700000000,  0.0002205100000000, -0.0000114200000000 ]
  - [  -0.0001055700000000,  0.0000013300000000, -0.0000613000000000 ]
  - [   0.0000251900000000, -0.0002193400000000,  0.0000729600000000 ]
  - [   0.0013514800000000, -0.0000064000000000,  0.0007987200000000 ]
  - [  -0.0005191200000000, -0.0002877900000000,  0.0001960000000000 ]
  - [  -0.0000904000000000,  0.0002874200000000, -0.0005477800000000 ]
  - [  -0.0000432500000000, -0.0001187800000000,  0.0001950400000000 ]
  - [  -0.0001052600000000,  0.0000001200000000, -0.0000619400000000 ]
  - [   0.0001465900000000,  0.0001199500000000, -0.0001388700000000 ]
  - [   0.0002038500000000, -0.0002794900000000, -0.0003405800000000 ]
  - [  -0.0001910700000000,  0.0002810400000000,  0.0003439300000000 ]
  - [  -0.0000111900000000,  0.0000011900000000, -0.0000083400000000 ]
  - [  -0.0230099100000000,  0.0000000300000000, -0.0132839400000000 ]
  - [   0.0019920200000000, -0.0000011300000000,  0.0011470700000000 ]
  - [   0.0019989600000000, -0.0000006200000000,  0.0011555900000000 ]
  - [  -0.0002189200000000,  0.0016157600000000, -0.0002096200000000 ]
  - [   0.0003228400000000,  0.0000012300000000,  0.0001883400000000 ]
  - [  -0.0002859600000000, -0.0016148100000000, -0.0000822500000000 ]
  - [  -0.0002153500000000,  0.0016134800000000, -0.0002047400000000 ]
  - [  -0.0002909900000000, -0.0016169700000000, -0.0000825000000000 ]
  - [   0.0003222200000000, -0.0000024400000000,  0.0001860300000000 ]
  - [  -0.0010043100000000, -0.0006075300000000,  0.0011520300000000 ]
  - [   0.0003232400000000, -0.0000003500000000,  0.0001879600000000 ]
  - [   0.0004993600000000,  0.0006047300000000, -0.0014449000000000 ]
  - [   0.0000390800000000,  0.0001015200000000,  0.0001879000000000 ]
  - [   0.0001804700000000, -0.0001000900000000, -0.0000601600000000 ]
  - [  -0.0002191200000000, -0.0000002200000000, -0.0001277300000000 ]
  - [  -0.0001437100000000,  0.0000005300000000, -0.0000864700000000 ]
  - [  -0.0000209300000000, -0.0002828500000000,  0.0002168400000000 ]
  - [   0.0001793300000000,  0.0002798900000000, -0.0001259200000000 ]
  - [  -0.0010005800000000, -0.0006043300000000,  0.0011527300000000 ]
  - [   0.0004944900000000,  0.0006069100000000, -0.0014459000000000 ]
  - [   0.0003248200000000,  0.0000000200000000,  0.0001870700000000 ]
  - [  -0.0001462900000000, -0.0000021300000000, -0.0000844000000000 ]
  - [   0.0001784400000000,  0.0002813900000000, -0.0001256900000000 ]
  - [  -0.0000192400000000, -0.0002809800000000,  0.0002194300000000 ]
  - [   0.0000396600000000,  0.0001000300000000,  0.0001875700000000 ]
  - [  -0.0002194000000000, -0.0000012000000000, -0.0001249900000000 ]
  - [   0.0001809500000000, -0.0001019800000000, -0.0000612100000000 ]
