phonopy:
  version: "2.45.1"
  frequency_unit_conversion_factor: 15.633302
  symmetry_tolerance: 1.00000e-05

space_group:
  type: "P6_3/mmc"
  number: 194
  Hall_symbol: "-P 6c 2c"

primitive_matrix:
- [  1.000000000000000,  0.000000000000000,  0.000000000000000 ]
- [  0.000000000000000,  1.000000000000000,  0.000000000000000 ]
- [  0.000000000000000,  0.000000000000000,  1.000000000000000 ]

supercell_matrix:
- [   3,   0,   0 ]
- [   0,   3,   0 ]
- [   0,   0,   2 ]

primitive_cell:
  lattice:
  - [     3.701026143183836,     0.000000000000000,     0.000000000000000 ] # a
  - [    -1.850512569930776,     3.205182264012768,     0.000000000000000 ] # b
  - [     0.000000000000000,     0.000000000000000,     6.290022040048364 ] # c
  points:
  - symbol: Na # 1
    coordinates: [  0.333333000000000,  0.666667000000000,  0.250000000000000 ]
    mass: 22.989769
  - symbol: Na # 2
    coordinates: [  0.666667000000000,  0.333333000000000,  0.750000000000000 ]
    mass: 22.989769
  reciprocal_lattice: # without 2pi
  - [     0.270195335377918,     0.155997326600553,     0.000000000000000 ] # a*
  - [     0.000000000000000,     0.311994737780696,     0.000000000000000 ] # b*
  - [     0.000000000000000,     0.000000000000000,     0.158981954853740 ] # c*

unit_cell:
  lattice:
  - [     3.701026143183836,     0.000000000000000,     0.000000000000000 ] # a
  - [    -1.850512569930776,     3.205182264012768,     0.000000000000000 ] # b
  - [     0.000000000000000,     0.000000000000000,     6.290022040048364 ] # c
  points:
  - symbol: Na # 1
    coordinates: [  0.333333000000000,  0.666667000000000,  0.250000000000000 ]
    mass: 22.989769
    reduced_to: 1
  - symbol: Na # 2
    coordinates: [  0.666667000000000,  0.333333000000000,  0.750000000000000 ]
    mass: 22.989769
    reduced_to: 2

supercell:
  lattice:
  - [    11.103078429551509,     0.000000000000000,     0.000000000000000 ] # a
  - [    -5.551537709792328,     9.615546792038304,     0.000000000000000 ] # b
  - [     0.000000000000000,     0.000000000000000,    12.580044080096728 ] # c
  points:
  - symbol: Na # 1
    coordinates: [  0.111111000000000,  0.222222333333333,  0.125000000000000 ]
    mass: 22.989769
    reduced_to: 1
  - symbol: Na # 2
    coordinates: [  0.444444333333333,  0.222222333333333,  0.125000000000000 ]
    mass: 22.989769
    reduced_to: 1
  - symbol: Na # 3
    coordinates: [  0.777777666666667,  0.222222333333333,  0.125000000000000 ]
    mass: 22.989769
    reduced_to: 1
  - symbol: Na # 4
    coordinates: [  0.111111000000000,  0.555555666666667,  0.125000000000000 ]
    mass: 22.989769
    reduced_to: 1
  - symbol: Na # 5
    coordinates: [  0.444444333333333,  0.555555666666667,  0.125000000000000 ]
    mass: 22.989769
    reduced_to: 1
  - symbol: Na # 6
    coordinates: [  0.777777666666667,  0.555555666666667,  0.125000000000000 ]
    mass: 22.989769
    reduced_to: 1
  - symbol: Na # 7
    coordinates: [  0.111111000000000,  0.888889000000000,  0.125000000000000 ]
    mass: 22.989769
    reduced_to: 1
  - symbol: Na # 8
    coordinates: [  0.444444333333333,  0.888889000000000,  0.125000000000000 ]
    mass: 22.989769
    reduced_to: 1
  - symbol: Na # 9
    coordinates: [  0.777777666666667,  0.888889000000000,  0.125000000000000 ]
    mass: 22.989769
    reduced_to: 1
  - symbol: Na # 10
    coordinates: [  0.111111000000000,  0.222222333333333,  0.625000000000000 ]
    mass: 22.989769
    reduced_to: 1
  - symbol: Na # 11
    coordinates: [  0.444444333333333,  0.222222333333333,  0.625000000000000 ]
    mass: 22.989769
    reduced_to: 1
  - symbol: Na # 12
    coordinates: [  0.777777666666667,  0.222222333333333,  0.625000000000000 ]
    mass: 22.989769
    reduced_to: 1
  - symbol: Na # 13
    coordinates: [  0.111111000000000,  0.555555666666667,  0.625000000000000 ]
    mass: 22.989769
    reduced_to: 1
  - symbol: Na # 14
    coordinates: [  0.444444333333333,  0.555555666666667,  0.625000000000000 ]
    mass: 22.989769
    reduced_to: 1
  - symbol: Na # 15
    coordinates: [  0.777777666666667,  0.555555666666667,  0.625000000000000 ]
    mass: 22.989769
    reduced_to: 1
  - symbol: Na # 16
    coordinates: [  0.111111000000000,  0.888889000000000,  0.625000000000000 ]
    mass: 22.989769
    reduced_to: 1
  - symbol: Na # 17
    coordinates: [  0.444444333333333,  0.888889000000000,  0.625000000000000 ]
    mass: 22.989769
    reduced_to: 1
  - symbol: Na # 18
    coordinates: [  0.777777666666667,  0.888889000000000,  0.625000000000000 ]
    mass: 22.989769
    reduced_to: 1
  - symbol: Na # 19
    coordinates: [  0.222222333333333,  0.111111000000000,  0.375000000000000 ]
    mass: 22.989769
    reduced_to: 19
  - symbol: Na # 20
    coordinates: [  0.555555666666667,  0.111111000000000,  0.375000000000000 ]
    mass: 22.989769
    reduced_to: 19
  - symbol: Na # 21
    coordinates: [  0.888889000000000,  0.111111000000000,  0.375000000000000 ]
    mass: 22.989769
    reduced_to: 19
  - symbol: Na # 22
    coordinates: [  0.222222333333333,  0.444444333333333,  0.375000000000000 ]
    mass: 22.989769
    reduced_to: 19
  - symbol: Na # 23
    coordinates: [  0.555555666666667,  0.444444333333333,  0.375000000000000 ]
    mass: 22.989769
    reduced_to: 19
  - symbol: Na # 24
    coordinates: [  0.888889000000000,  0.444444333333333,  0.375000000000000 ]
    mass: 22.989769
    reduced_to: 19
  - symbol: Na # 25
    coordinates: [  0.222222333333333,  0.777777666666667,  0.375000000000000 ]
    mass: 22.989769
    reduced_to: 19
  - symbol: Na # 26
    coordinates: [  0.555555666666667,  0.777777666666667,  0.375000000000000 ]
    mass: 22.989769
    reduced_to: 19
  - symbol: Na # 27
    coordinates: [  0.888889000000000,  0.777777666666667,  0.375000000000000 ]
    mass: 22.989769
    reduced_to: 19
  - symbol: Na # 28
    coordinates: [  0.222222333333333,  0.111111000000000,  0.875000000000000 ]
    mass: 22.989769
    reduced_to: 19
  - symbol: Na # 29
    coordinates: [  0.555555666666667,  0.111111000000000,  0.875000000000000 ]
    mass: 22.989769
    reduced_to: 19
  - symbol: Na # 30
    coordinates: [  0.888889000000000,  0.111111000000000,  0.875000000000000 ]
    mass: 22.989769
    reduced_to: 19
  - symbol: Na # 31
    coordinates: [  0.222222333333333,  0.444444333333333,  0.875000000000000 ]
    mass: 22.989769
    reduced_to: 19
  - symbol: Na # 32
    coordinates: [  0.555555666666667,  0.444444333333333,  0.875000000000000 ]
    mass: 22.989769
    reduced_to: 19
  - symbol: Na # 33
    coordinates: [  0.888889000000000,  0.444444333333333,  0.875000000000000 ]
    mass: 22.989769
    reduced_to: 19
  - symbol: Na # 34
    coordinates: [  0.222222333333333,  0.777777666666667,  0.875000000000000 ]
    mass: 22.989769
    reduced_to: 19
  - symbol: Na # 35
    coordinates: [  0.555555666666667,  0.777777666666667,  0.875000000000000 ]
    mass: 22.989769
    reduced_to: 19
  - symbol: Na # 36
    coordinates: [  0.888889000000000,  0.777777666666667,  0.875000000000000 ]
    mass: 22.989769
    reduced_to: 19

displacements:
- atom:    1
  displacement:
    [   0.0066172348427325,  0.0000000000000000,  0.0074974797789742 ]
  forces:
  - [  -0.0050073700000000,  0.0000011500000000, -0.0053807300000000 ]
  - [   0.0013210800000000,  0.0000002000000000, -0.0000429700000000 ]
  - [   0.0013151000000000, -0.0000017400000000, -0.0000377500000000 ]
  - [   0.0003087900000000, -0.0005840100000000, -0.0000391000000000 ]
  - [   0.0003053800000000,  0.0005812100000000, -0.0000417400000000 ]
  - [  -0.0000053800000000, -0.0000006900000000, -0.0000061700000000 ]
  - [   0.0003054900000000, -0.0005837700000000, -0.0000416200000000 ]
  - [  -0.0000056800000000,  0.0000001800000000, -0.0000061600000000 ]
  - [   0.0003088900000000,  0.0005856800000000, -0.0000391000000000 ]
  - [  -0.0000039400000000, -0.0000007200000000,  0.0000120700000000 ]
  - [   0.0000030200000000, -0.0000009800000000,  0.0000084800000000 ]
  - [   0.0000029900000000, -0.0000005600000000,  0.0000088500000000 ]
  - [  -0.0000007800000000, -0.0000028200000000,  0.0000086200000000 ]
  - [  -0.0000007800000000,  0.0000018900000000,  0.0000086600000000 ]
  - [   0.0000036200000000, -0.0000005100000000,  0.0000063800000000 ]
  - [  -0.0000007100000000, -0.0000020400000000,  0.0000083700000000 ]
  - [   0.0000034500000000, -0.0000000800000000,  0.0000064000000000 ]
  - [  -0.0000007500000000,  0.0000021000000000,  0.0000087500000000 ]
  - [   0.0008317400000000, -0.0004802000000000,  0.0014113800000000 ]
  - [  -0.0000008100000000,  0.0000004100000000, -0.0000002200000000 ]
  - [  -0.0002562500000000, -0.0001486900000000,  0.0004447700000000 ]
  - [   0.0000005800000000,  0.0006288500000000,  0.0009266700000000 ]
  - [  -0.0000015300000000, -0.0000004700000000, -0.0000014500000000 ]
  - [   0.0000025400000000, -0.0000009900000000,  0.0000019100000000 ]
  - [  -0.0000014300000000,  0.0000001500000000,  0.0000000100000000 ]
  - [  -0.0000010400000000,  0.0000007400000000,  0.0000000400000000 ]
  - [   0.0000000700000000,  0.0000030100000000,  0.0000002600000000 ]
  - [  -0.0002565100000000,  0.0001502500000000,  0.0004496400000000 ]
  - [  -0.0000003900000000,  0.0000003200000000, -0.0000000200000000 ]
  - [   0.0008271900000000,  0.0004744200000000,  0.0013998200000000 ]
  - [   0.0000044700000000, -0.0006248900000000,  0.0009260100000000 ]
  - [   0.0000023700000000,  0.0000018100000000,  0.0000016800000000 ]
  - [  -0.0000010900000000,  0.0000009800000000, -0.0000014300000000 ]
  - [  -0.0000012700000000,  0.0000000100000000, -0.0000002000000000 ]
  - [  -0.0000010000000000,  0.0000010600000000, -0.0000001500000000 ]
  - [  -0.0000000800000000, -0.0000012700000000,  0.0000000300000000 ]
