phonopy:
  version: "2.45.1"
  frequency_unit_conversion_factor: 15.633302
  symmetry_tolerance: 1.00000e-05

space_group:
  type: "Fm-3m"
  number: 225
  Hall_symbol: "-F 4 2 3"

primitive_matrix:
- [ -1.000000000000000, -0.000000000000000,  0.000000000000000 ]
- [  1.000000000000000,  1.000000000000000,  1.000000000000000 ]
- [ -0.000000000000000,  0.000000000000000, -1.000000000000000 ]

supercell_matrix:
- [   3,   0,   0 ]
- [   0,   3,   0 ]
- [   0,   0,   3 ]

primitive_cell:
  lattice:
  - [    -2.477302970027990,     3.503434762297679,     0.000000000000000 ] # a
  - [     1.238650983352853,     3.503434762297679,     2.145407510393150 ] # b
  - [     1.238650973319630,     3.503434752264456,    -2.145405453582470 ] # c
  points:
  - symbol: Sr # 1
    coordinates: [  0.000000000000000,  0.000000000000000,  0.000000000000000 ]
    mass: 87.620000
  - symbol: S # 2
    coordinates: [  0.500000000000000,  0.500000000000000,  0.500000000000000 ]
    mass: 32.065000
  reciprocal_lattice: # without 2pi
  - [    -0.269109901096298,     0.095144698093819,     0.000000000406783 ] # a*
  - [     0.134554886241607,     0.095144691405499,     0.233056067950543 ] # b*
  - [     0.134555015240033,     0.095144782621179,    -0.233056069024758 ] # c*

unit_cell:
  lattice:
  - [     3.715953953380843,     0.000000000000000,     2.145407510393150 ] # a
  - [     1.238650983352853,     3.503434762297679,     2.145407510393150 ] # b
  - [     0.000000010033223,     0.000000010033223,     4.290812963975619 ] # c
  points:
  - symbol: Sr # 1
    coordinates: [  0.000000000000000,  0.000000000000000,  0.000000000000000 ]
    mass: 87.620000
    reduced_to: 1
  - symbol: S # 2
    coordinates: [  0.500000000000000,  0.500000000000000,  0.500000000000000 ]
    mass: 32.065000
    reduced_to: 2

supercell:
  lattice:
  - [    11.147861860142529,     0.000000000000000,     6.436222531179450 ] # a
  - [     3.715952950058559,    10.510304286893037,     6.436222531179450 ] # b
  - [     0.000000030099669,     0.000000030099669,    12.872438891926858 ] # c
  points:
  - symbol: Sr # 1
    coordinates: [  0.000000000000000,  0.000000000000000,  0.000000000000000 ]
    mass: 87.620000
    reduced_to: 1
  - symbol: Sr # 2
    coordinates: [  0.333333333333333,  0.000000000000000,  0.000000000000000 ]
    mass: 87.620000
    reduced_to: 1
  - symbol: Sr # 3
    coordinates: [  0.666666666666667,  0.000000000000000,  0.000000000000000 ]
    mass: 87.620000
    reduced_to: 1
  - symbol: Sr # 4
    coordinates: [  0.000000000000000,  0.333333333333333,  0.000000000000000 ]
    mass: 87.620000
    reduced_to: 1
  - symbol: Sr # 5
    coordinates: [  0.333333333333333,  0.333333333333333,  0.000000000000000 ]
    mass: 87.620000
    reduced_to: 1
  - symbol: Sr # 6
    coordinates: [  0.666666666666667,  0.333333333333333,  0.000000000000000 ]
    mass: 87.620000
    reduced_to: 1
  - symbol: Sr # 7
    coordinates: [  0.000000000000000,  0.666666666666667,  0.000000000000000 ]
    mass: 87.620000
    reduced_to: 1
  - symbol: Sr # 8
    coordinates: [  0.333333333333333,  0.666666666666667,  0.000000000000000 ]
    mass: 87.620000
    reduced_to: 1
  - symbol: Sr # 9
    coordinates: [  0.666666666666667,  0.666666666666667,  0.000000000000000 ]
    mass: 87.620000
    reduced_to: 1
  - symbol: Sr # 10
    coordinates: [  0.000000000000000,  0.000000000000000,  0.333333333333333 ]
    mass: 87.620000
    reduced_to: 1
  - symbol: Sr # 11
    coordinates: [  0.333333333333333,  0.000000000000000,  0.333333333333333 ]
    mass: 87.620000
    reduced_to: 1
  - symbol: Sr # 12
    coordinates: [  0.666666666666667,  0.000000000000000,  0.333333333333333 ]
    mass: 87.620000
    reduced_to: 1
  - symbol: Sr # 13
    coordinates: [  0.000000000000000,  0.333333333333333,  0.333333333333333 ]
    mass: 87.620000
    reduced_to: 1
  - symbol: Sr # 14
    coordinates: [  0.333333333333333,  0.333333333333333,  0.333333333333333 ]
    mass: 87.620000
    reduced_to: 1
  - symbol: Sr # 15
    coordinates: [  0.666666666666667,  0.333333333333333,  0.333333333333333 ]
    mass: 87.620000
    reduced_to: 1
  - symbol: Sr # 16
    coordinates: [  0.000000000000000,  0.666666666666667,  0.333333333333333 ]
    mass: 87.620000
    reduced_to: 1
  - symbol: Sr # 17
    coordinates: [  0.333333333333333,  0.666666666666667,  0.333333333333333 ]
    mass: 87.620000
    reduced_to: 1
  - symbol: Sr # 18
    coordinates: [  0.666666666666667,  0.666666666666667,  0.333333333333333 ]
    mass: 87.620000
    reduced_to: 1
  - symbol: Sr # 19
    coordinates: [  0.000000000000000,  0.000000000000000,  0.666666666666667 ]
    mass: 87.620000
    reduced_to: 1
  - symbol: Sr # 20
    coordinates: [  0.333333333333333,  0.000000000000000,  0.666666666666667 ]
    mass: 87.620000
    reduced_to: 1
  - symbol: Sr # 21
    coordinates: [  0.666666666666667,  0.000000000000000,  0.666666666666667 ]
    mass: 87.620000
    reduced_to: 1
  - symbol: Sr # 22
    coordinates: [  0.000000000000000,  0.333333333333333,  0.666666666666667 ]
    mass: 87.620000
    reduced_to: 1
  - symbol: Sr # 23
    coordinates: [  0.333333333333333,  0.333333333333333,  0.666666666666667 ]
    mass: 87.620000
    reduced_to: 1
  - symbol: Sr # 24
    coordinates: [  0.666666666666667,  0.333333333333333,  0.666666666666667 ]
    mass: 87.620000
    reduced_to: 1
  - symbol: Sr # 25
    coordinates: [  0.000000000000000,  0.666666666666667,  0.666666666666667 ]
    mass: 87.620000
    reduced_to: 1
  - symbol: Sr # 26
    coordinates: [  0.333333333333333,  0.666666666666667,  0.666666666666667 ]
    mass: 87.620000
    reduced_to: 1
  - symbol: Sr # 27
    coordinates: [  0.666666666666667,  0.666666666666667,  0.666666666666667 ]
    mass: 87.620000
    reduced_to: 1
  - symbol: S # 28
    coordinates: [  0.166666666666667,  0.166666666666667,  0.166666666666667 ]
    mass: 32.065000
    reduced_to: 28
  - symbol: S # 29
    coordinates: [  0.500000000000000,  0.166666666666667,  0.166666666666667 ]
    mass: 32.065000
    reduced_to: 28
  - symbol: S # 30
    coordinates: [  0.833333333333333,  0.166666666666667,  0.166666666666667 ]
    mass: 32.065000
    reduced_to: 28
  - symbol: S # 31
    coordinates: [  0.166666666666667,  0.500000000000000,  0.166666666666667 ]
    mass: 32.065000
    reduced_to: 28
  - symbol: S # 32
    coordinates: [  0.500000000000000,  0.500000000000000,  0.166666666666667 ]
    mass: 32.065000
    reduced_to: 28
  - symbol: S # 33
    coordinates: [  0.833333333333333,  0.500000000000000,  0.166666666666667 ]
    mass: 32.065000
    reduced_to: 28
  - symbol: S # 34
    coordinates: [  0.166666666666667,  0.833333333333333,  0.166666666666667 ]
    mass: 32.065000
    reduced_to: 28
  - symbol: S # 35
    coordinates: [  0.500000000000000,  0.833333333333333,  0.166666666666667 ]
    mass: 32.065000
    reduced_to: 28
  - symbol: S # 36
    coordinates: [  0.833333333333333,  0.833333333333333,  0.166666666666667 ]
    mass: 32.065000
    reduced_to: 28
  - symbol: S # 37
    coordinates: [  0.166666666666667,  0.166666666666667,  0.500000000000000 ]
    mass: 32.065000
    reduced_to: 28
  - symbol: S # 38
    coordinates: [  0.500000000000000,  0.166666666666667,  0.500000000000000 ]
    mass: 32.065000
    reduced_to: 28
  - symbol: S # 39
    coordinates: [  0.833333333333333,  0.166666666666667,  0.500000000000000 ]
    mass: 32.065000
    reduced_to: 28
  - symbol: S # 40
    coordinates: [  0.166666666666667,  0.500000000000000,  0.500000000000000 ]
    mass: 32.065000
    reduced_to: 28
  - symbol: S # 41
    coordinates: [  0.500000000000000,  0.500000000000000,  0.500000000000000 ]
    mass: 32.065000
    reduced_to: 28
  - symbol: S # 42
    coordinates: [  0.833333333333333,  0.500000000000000,  0.500000000000000 ]
    mass: 32.065000
    reduced_to: 28
  - symbol: S # 43
    coordinates: [  0.166666666666667,  0.833333333333333,  0.500000000000000 ]
    mass: 32.065000
    reduced_to: 28
  - symbol: S # 44
    coordinates: [  0.500000000000000,  0.833333333333333,  0.500000000000000 ]
    mass: 32.065000
    reduced_to: 28
  - symbol: S # 45
    coordinates: [  0.833333333333333,  0.833333333333333,  0.500000000000000 ]
    mass: 32.065000
    reduced_to: 28
  - symbol: S # 46
    coordinates: [  0.166666666666667,  0.166666666666667,  0.833333333333333 ]
    mass: 32.065000
    reduced_to: 28
  - symbol: S # 47
    coordinates: [  0.500000000000000,  0.166666666666667,  0.833333333333333 ]
    mass: 32.065000
    reduced_to: 28
  - symbol: S # 48
    coordinates: [  0.833333333333333,  0.166666666666667,  0.833333333333333 ]
    mass: 32.065000
    reduced_to: 28
  - symbol: S # 49
    coordinates: [  0.166666666666667,  0.500000000000000,  0.833333333333333 ]
    mass: 32.065000
    reduced_to: 28
  - symbol: S # 50
    coordinates: [  0.500000000000000,  0.500000000000000,  0.833333333333333 ]
    mass: 32.065000
    reduced_to: 28
  - symbol: S # 51
    coordinates: [  0.833333333333333,  0.500000000000000,  0.833333333333333 ]
    mass: 32.065000
    reduced_to: 28
  - symbol: S # 52
    coordinates: [  0.166666666666667,  0.833333333333333,  0.833333333333333 ]
    mass: 32.065000
    reduced_to: 28
  - symbol: S # 53
    coordinates: [  0.500000000000000,  0.833333333333333,  0.833333333333333 ]
    mass: 32.065000
    reduced_to: 28
  - symbol: S # 54
    coordinates: [  0.833333333333333,  0.833333333333333,  0.833333333333333 ]
    mass: 32.065000
    reduced_to: 28

displacements:
- atom:    1
  displacement:
    [   0.0086602535381956,  0.0000000000000000,  0.0050000008654169 ]
  forces:
  - [  -0.0388146600000000, -0.0000010100000000, -0.0224077100000000 ]
  - [   0.0057945200000000, -0.0000008500000000,  0.0033484300000000 ]
  - [   0.0056884000000000, -0.0000004700000000,  0.0032879600000000 ]
  - [  -0.0010149800000000,  0.0031369500000000,  0.0021154200000000 ]
  - [   0.0006948800000000,  0.0000010200000000,  0.0004032900000000 ]
  - [   0.0013156200000000, -0.0031163500000000, -0.0019267400000000 ]
  - [  -0.0010112200000000,  0.0031178200000000,  0.0021074300000000 ]
  - [   0.0013214700000000, -0.0031367500000000, -0.0019343500000000 ]
  - [   0.0006927200000000,  0.0000001800000000,  0.0004055800000000 ]
  - [  -0.0017139800000000,  0.0011570400000000,  0.0033257800000000 ]
  - [   0.0006957800000000, -0.0000010400000000,  0.0004017900000000 ]
  - [   0.0020081100000000, -0.0011590700000000, -0.0031282400000000 ]
  - [  -0.0004494800000000,  0.0004061300000000,  0.0004011400000000 ]
  - [   0.0001216600000000, -0.0004050000000000, -0.0005898800000000 ]
  - [   0.0003129700000000, -0.0000011500000000,  0.0001774100000000 ]
  - [  -0.0033443600000000,  0.0000055800000000, -0.0019346700000000 ]
  - [   0.0013063100000000, -0.0014039500000000,  0.0019008400000000 ]
  - [   0.0022905800000000,  0.0014019800000000,  0.0001796700000000 ]
  - [  -0.0017024700000000,  0.0011564800000000,  0.0033055800000000 ]
  - [   0.0020220900000000, -0.0011581200000000, -0.0031486600000000 ]
  - [   0.0006942200000000,  0.0000006800000000,  0.0003975900000000 ]
  - [  -0.0033466300000000, -0.0000054100000000, -0.0019305500000000 ]
  - [   0.0022993300000000,  0.0014053800000000,  0.0001780900000000 ]
  - [   0.0013012000000000, -0.0013990000000000,  0.0018965800000000 ]
  - [  -0.0004480200000000,  0.0004061800000000,  0.0003981800000000 ]
  - [   0.0003120400000000,  0.0000028600000000,  0.0001846100000000 ]
  - [   0.0001211800000000, -0.0004027100000000, -0.0005907800000000 ]
  - [  -0.0002534900000000, -0.0007442500000000, -0.0013612800000000 ]
  - [  -0.0013033000000000,  0.0007411000000000,  0.0004569300000000 ]
  - [   0.0030593500000000, -0.0000129200000000,  0.0017458200000000 ]
  - [   0.0007953200000000, -0.0000006800000000,  0.0004592900000000 ]
  - [  -0.0007045600000000,  0.0009759200000000,  0.0003040900000000 ]
  - [  -0.0000898000000000, -0.0009748900000000, -0.0007625300000000 ]
  - [   0.0050836000000000, -0.0028934800000000,  0.0052990500000000 ]
  - [  -0.0020803400000000,  0.0000024500000000, -0.0012064100000000 ]
  - [   0.0068573100000000,  0.0026841200000000,  0.0017679600000000 ]
  - [   0.0007943900000000,  0.0000004500000000,  0.0004612200000000 ]
  - [  -0.0009608900000000,  0.0002542300000000,  0.0007449700000000 ]
  - [   0.0001641600000000, -0.0002564500000000, -0.0012016400000000 ]
  - [   0.0005260000000000, -0.0000011400000000,  0.0003034300000000 ]
  - [  -0.0010515100000000, -0.0000011100000000, -0.0006078500000000 ]
  - [   0.0005248400000000, -0.0000006400000000,  0.0003028000000000 ]
  - [   0.0001633200000000, -0.0002545500000000, -0.0012057200000000 ]
  - [  -0.0009550400000000,  0.0002566400000000,  0.0007421800000000 ]
  - [   0.0007949300000000, -0.0000009700000000,  0.0004579200000000 ]
  - [   0.0071305700000000,  0.0028941100000000,  0.0017521700000000 ]
  - [  -0.0020848200000000, -0.0000030700000000, -0.0012010600000000 ]
  - [   0.0049604600000000, -0.0026840500000000,  0.0050522100000000 ]
  - [  -0.0000910500000000, -0.0009768400000000, -0.0007626700000000 ]
  - [  -0.0007039100000000,  0.0009720400000000,  0.0003001900000000 ]
  - [   0.0007954100000000, -0.0000007200000000,  0.0004585700000000 ]
  - [   0.0030410800000000,  0.0000140400000000,  0.0017732000000000 ]
  - [  -0.0013015000000000,  0.0007448400000000,  0.0004592000000000 ]
  - [  -0.0002578400000000, -0.0007416400000000, -0.0013558500000000 ]
- atom:   28
  displacement:
    [   0.0086602535381956,  0.0000000000000000,  0.0050000008654169 ]
  forces:
  - [  -0.0002547800000000, -0.0007416400000000, -0.0013555500000000 ]
  - [   0.0030346300000000,  0.0000220700000000,  0.0017925800000000 ]
  - [  -0.0013089800000000,  0.0007447200000000,  0.0004657000000000 ]
  - [   0.0049692000000000, -0.0027010200000000,  0.0050749300000000 ]
  - [   0.0071125200000000,  0.0028786700000000,  0.0017586600000000 ]
  - [  -0.0020890500000000, -0.0000042200000000, -0.0011986100000000 ]
  - [   0.0007964100000000,  0.0000023000000000,  0.0004635700000000 ]
  - [  -0.0000908400000000, -0.0009753200000000, -0.0007614200000000 ]
  - [  -0.0007093400000000,  0.0009758300000000,  0.0003074300000000 ]
  - [   0.0068787000000000,  0.0026981900000000,  0.0017659900000000 ]
  - [   0.0050788100000000, -0.0028787700000000,  0.0052812600000000 ]
  - [  -0.0020862000000000,  0.0000031800000000, -0.0012058100000000 ]
  - [   0.0030698000000000, -0.0000225200000000,  0.0017331400000000 ]
  - [  -0.0002522800000000, -0.0007450600000000, -0.0013615900000000 ]
  - [  -0.0013056900000000,  0.0007414500000000,  0.0004555900000000 ]
  - [  -0.0000883100000000, -0.0009735900000000, -0.0007627800000000 ]
  - [   0.0007969900000000, -0.0000006400000000,  0.0004574100000000 ]
  - [  -0.0007072100000000,  0.0009792100000000,  0.0003024800000000 ]
  - [   0.0007981800000000,  0.0000006300000000,  0.0004614300000000 ]
  - [   0.0001643000000000, -0.0002553700000000, -0.0012050000000000 ]
  - [  -0.0009624900000000,  0.0002566700000000,  0.0007409900000000 ]
  - [   0.0001667800000000, -0.0002571700000000, -0.0012039600000000 ]
  - [   0.0007970100000000, -0.0000006500000000,  0.0004549100000000 ]
  - [  -0.0009625000000000,  0.0002555000000000,  0.0007473200000000 ]
  - [   0.0005261200000000,  0.0000006400000000,  0.0002987100000000 ]
  - [   0.0005291100000000,  0.0000010600000000,  0.0003071400000000 ]
  - [  -0.0010538400000000,  0.0000027600000000, -0.0006066000000000 ]
  - [  -0.0364501300000000,  0.0000002400000000, -0.0210442100000000 ]
  - [   0.0035894000000000, -0.0000002400000000,  0.0020713000000000 ]
  - [   0.0035759200000000,  0.0000001900000000,  0.0020654700000000 ]
  - [  -0.0006470400000000,  0.0021354100000000,  0.0010194800000000 ]
  - [   0.0007933100000000,  0.0000012300000000,  0.0004592700000000 ]
  - [   0.0005653300000000, -0.0021341100000000, -0.0010655100000000 ]
  - [  -0.0006407500000000,  0.0021327500000000,  0.0010250900000000 ]
  - [   0.0005647600000000, -0.0021366500000000, -0.0010701200000000 ]
  - [   0.0007894400000000, -0.0000023700000000,  0.0004555700000000 ]
  - [  -0.0012530200000000,  0.0004251500000000,  0.0020691600000000 ]
  - [   0.0007918300000000, -0.0000005600000000,  0.0004590500000000 ]
  - [   0.0011687500000000, -0.0004261200000000, -0.0021102800000000 ]
  - [  -0.0003171100000000,  0.0003914600000000,  0.0004576900000000 ]
  - [   0.0002366000000000, -0.0003927800000000, -0.0005040000000000 ]
  - [   0.0001078900000000, -0.0000041600000000,  0.0000567400000000 ]
  - [  -0.0018494600000000,  0.0000035500000000, -0.0010699800000000 ]
  - [   0.0012473100000000, -0.0016085100000000,  0.0020298800000000 ]
  - [   0.0023690400000000,  0.0015992000000000,  0.0000611600000000 ]
  - [  -0.0012437000000000,  0.0004272200000000,  0.0020665600000000 ]
  - [   0.0011671500000000, -0.0004259400000000, -0.0021165800000000 ]
  - [   0.0007918400000000,  0.0000002500000000,  0.0004501800000000 ]
  - [  -0.0018508600000000, -0.0000031600000000, -0.0010652300000000 ]
  - [   0.0023827200000000,  0.0016071300000000,  0.0000564600000000 ]
  - [   0.0012379700000000, -0.0015999600000000,  0.0020208400000000 ]
  - [  -0.0003189200000000,  0.0003929100000000,  0.0004523500000000 ]
  - [   0.0001093400000000,  0.0000039800000000,  0.0000634100000000 ]
  - [   0.0002353600000000, -0.0003927900000000, -0.0005013400000000 ]
