phonopy:
  version: "2.45.1"
  frequency_unit_conversion_factor: 15.633302
  symmetry_tolerance: 1.00000e-05

space_group:
  type: "P6_3/mmc"
  number: 194
  Hall_symbol: "-P 6c 2c"

primitive_matrix:
- [  1.000000000000000,  0.000000000000000,  0.000000000000000 ]
- [  0.000000000000000,  1.000000000000000,  0.000000000000000 ]
- [  0.000000000000000,  0.000000000000000,  1.000000000000000 ]

supercell_matrix:
- [   3,   0,   0 ]
- [   0,   3,   0 ]
- [   0,   0,   2 ]

primitive_cell:
  lattice:
  - [     3.713200658966768,     0.000000000000000,     0.000000000000000 ] # a
  - [    -1.856599826172029,     3.215725702656741,     0.000000000000000 ] # b
  - [     0.000000000000000,     0.000000000000000,     6.310713051038003 ] # c
  points:
  - symbol: Na # 1
    coordinates: [  0.333333000000000,  0.666667000000000,  0.250000000000000 ]
    mass: 22.989769
  - symbol: Na # 2
    coordinates: [  0.666667000000000,  0.333333000000000,  0.750000000000000 ]
    mass: 22.989769
  reciprocal_lattice: # without 2pi
  - [     0.269309442673173,     0.155485856284450,     0.000000000000000 ] # a*
  - [     0.000000000000000,     0.310971796871179,     0.000000000000000 ] # b*
  - [     0.000000000000000,     0.000000000000000,     0.158460698800988 ] # c*

unit_cell:
  lattice:
  - [     3.713200658966768,     0.000000000000000,     0.000000000000000 ] # a
  - [    -1.856599826172029,     3.215725702656741,     0.000000000000000 ] # b
  - [     0.000000000000000,     0.000000000000000,     6.310713051038003 ] # c
  points:
  - symbol: Na # 1
    coordinates: [  0.333333000000000,  0.666667000000000,  0.250000000000000 ]
    mass: 22.989769
    reduced_to: 1
  - symbol: Na # 2
    coordinates: [  0.666667000000000,  0.333333000000000,  0.750000000000000 ]
    mass: 22.989769
    reduced_to: 2

supercell:
  lattice:
  - [    11.139601976900304,     0.000000000000000,     0.000000000000000 ] # a
  - [    -5.569799478516087,     9.647177107970224,     0.000000000000000 ] # b
  - [     0.000000000000000,     0.000000000000000,    12.621426102076006 ] # c
  points:
  - symbol: Na # 1
    coordinates: [  0.111111000000000,  0.222222333333333,  0.125000000000000 ]
    mass: 22.989769
    reduced_to: 1
  - symbol: Na # 2
    coordinates: [  0.444444333333333,  0.222222333333333,  0.125000000000000 ]
    mass: 22.989769
    reduced_to: 1
  - symbol: Na # 3
    coordinates: [  0.777777666666667,  0.222222333333333,  0.125000000000000 ]
    mass: 22.989769
    reduced_to: 1
  - symbol: Na # 4
    coordinates: [  0.111111000000000,  0.555555666666667,  0.125000000000000 ]
    mass: 22.989769
    reduced_to: 1
  - symbol: Na # 5
    coordinates: [  0.444444333333333,  0.555555666666667,  0.125000000000000 ]
    mass: 22.989769
    reduced_to: 1
  - symbol: Na # 6
    coordinates: [  0.777777666666667,  0.555555666666667,  0.125000000000000 ]
    mass: 22.989769
    reduced_to: 1
  - symbol: Na # 7
    coordinates: [  0.111111000000000,  0.888889000000000,  0.125000000000000 ]
    mass: 22.989769
    reduced_to: 1
  - symbol: Na # 8
    coordinates: [  0.444444333333333,  0.888889000000000,  0.125000000000000 ]
    mass: 22.989769
    reduced_to: 1
  - symbol: Na # 9
    coordinates: [  0.777777666666667,  0.888889000000000,  0.125000000000000 ]
    mass: 22.989769
    reduced_to: 1
  - symbol: Na # 10
    coordinates: [  0.111111000000000,  0.222222333333333,  0.625000000000000 ]
    mass: 22.989769
    reduced_to: 1
  - symbol: Na # 11
    coordinates: [  0.444444333333333,  0.222222333333333,  0.625000000000000 ]
    mass: 22.989769
    reduced_to: 1
  - symbol: Na # 12
    coordinates: [  0.777777666666667,  0.222222333333333,  0.625000000000000 ]
    mass: 22.989769
    reduced_to: 1
  - symbol: Na # 13
    coordinates: [  0.111111000000000,  0.555555666666667,  0.625000000000000 ]
    mass: 22.989769
    reduced_to: 1
  - symbol: Na # 14
    coordinates: [  0.444444333333333,  0.555555666666667,  0.625000000000000 ]
    mass: 22.989769
    reduced_to: 1
  - symbol: Na # 15
    coordinates: [  0.777777666666667,  0.555555666666667,  0.625000000000000 ]
    mass: 22.989769
    reduced_to: 1
  - symbol: Na # 16
    coordinates: [  0.111111000000000,  0.888889000000000,  0.625000000000000 ]
    mass: 22.989769
    reduced_to: 1
  - symbol: Na # 17
    coordinates: [  0.444444333333333,  0.888889000000000,  0.625000000000000 ]
    mass: 22.989769
    reduced_to: 1
  - symbol: Na # 18
    coordinates: [  0.777777666666667,  0.888889000000000,  0.625000000000000 ]
    mass: 22.989769
    reduced_to: 1
  - symbol: Na # 19
    coordinates: [  0.222222333333333,  0.111111000000000,  0.375000000000000 ]
    mass: 22.989769
    reduced_to: 19
  - symbol: Na # 20
    coordinates: [  0.555555666666667,  0.111111000000000,  0.375000000000000 ]
    mass: 22.989769
    reduced_to: 19
  - symbol: Na # 21
    coordinates: [  0.888889000000000,  0.111111000000000,  0.375000000000000 ]
    mass: 22.989769
    reduced_to: 19
  - symbol: Na # 22
    coordinates: [  0.222222333333333,  0.444444333333333,  0.375000000000000 ]
    mass: 22.989769
    reduced_to: 19
  - symbol: Na # 23
    coordinates: [  0.555555666666667,  0.444444333333333,  0.375000000000000 ]
    mass: 22.989769
    reduced_to: 19
  - symbol: Na # 24
    coordinates: [  0.888889000000000,  0.444444333333333,  0.375000000000000 ]
    mass: 22.989769
    reduced_to: 19
  - symbol: Na # 25
    coordinates: [  0.222222333333333,  0.777777666666667,  0.375000000000000 ]
    mass: 22.989769
    reduced_to: 19
  - symbol: Na # 26
    coordinates: [  0.555555666666667,  0.777777666666667,  0.375000000000000 ]
    mass: 22.989769
    reduced_to: 19
  - symbol: Na # 27
    coordinates: [  0.888889000000000,  0.777777666666667,  0.375000000000000 ]
    mass: 22.989769
    reduced_to: 19
  - symbol: Na # 28
    coordinates: [  0.222222333333333,  0.111111000000000,  0.875000000000000 ]
    mass: 22.989769
    reduced_to: 19
  - symbol: Na # 29
    coordinates: [  0.555555666666667,  0.111111000000000,  0.875000000000000 ]
    mass: 22.989769
    reduced_to: 19
  - symbol: Na # 30
    coordinates: [  0.888889000000000,  0.111111000000000,  0.875000000000000 ]
    mass: 22.989769
    reduced_to: 19
  - symbol: Na # 31
    coordinates: [  0.222222333333333,  0.444444333333333,  0.875000000000000 ]
    mass: 22.989769
    reduced_to: 19
  - symbol: Na # 32
    coordinates: [  0.555555666666667,  0.444444333333333,  0.875000000000000 ]
    mass: 22.989769
    reduced_to: 19
  - symbol: Na # 33
    coordinates: [  0.888889000000000,  0.444444333333333,  0.875000000000000 ]
    mass: 22.989769
    reduced_to: 19
  - symbol: Na # 34
    coordinates: [  0.222222333333333,  0.777777666666667,  0.875000000000000 ]
    mass: 22.989769
    reduced_to: 19
  - symbol: Na # 35
    coordinates: [  0.555555666666667,  0.777777666666667,  0.875000000000000 ]
    mass: 22.989769
    reduced_to: 19
  - symbol: Na # 36
    coordinates: [  0.888889000000000,  0.777777666666667,  0.875000000000000 ]
    mass: 22.989769
    reduced_to: 19

displacements:
- atom:    1
  displacement:
    [   0.0066172348427325,  0.0000000000000000,  0.0074974797789742 ]
  forces:
  - [  -0.0049986300000000,  0.0000019500000000, -0.0053764700000000 ]
  - [   0.0013077300000000,  0.0000008900000000, -0.0000381400000000 ]
  - [   0.0013025000000000, -0.0000009900000000, -0.0000329800000000 ]
  - [   0.0003095200000000, -0.0005765000000000, -0.0000341400000000 ]
  - [   0.0003054800000000,  0.0005734900000000, -0.0000368500000000 ]
  - [  -0.0000042800000000, -0.0000004300000000, -0.0000060300000000 ]
  - [   0.0003057300000000, -0.0005766900000000, -0.0000368300000000 ]
  - [  -0.0000044500000000, -0.0000006000000000, -0.0000060700000000 ]
  - [   0.0003091400000000,  0.0005773900000000, -0.0000344000000000 ]
  - [  -0.0000046000000000, -0.0000002100000000,  0.0000159600000000 ]
  - [   0.0000033200000000, -0.0000001100000000,  0.0000094200000000 ]
  - [   0.0000035000000000, -0.0000003200000000,  0.0000096700000000 ]
  - [  -0.0000006200000000, -0.0000026200000000,  0.0000095500000000 ]
  - [  -0.0000007300000000,  0.0000019100000000,  0.0000095800000000 ]
  - [   0.0000032200000000, -0.0000002800000000,  0.0000059000000000 ]
  - [  -0.0000006900000000, -0.0000030600000000,  0.0000091900000000 ]
  - [   0.0000032300000000, -0.0000005400000000,  0.0000059400000000 ]
  - [  -0.0000007800000000,  0.0000018500000000,  0.0000096800000000 ]
  - [   0.0008255800000000, -0.0004736000000000,  0.0013982700000000 ]
  - [   0.0000011700000000,  0.0000006500000000,  0.0000001200000000 ]
  - [  -0.0002497200000000, -0.0001469900000000,  0.0004437100000000 ]
  - [   0.0000049700000000,  0.0006212200000000,  0.0009195600000000 ]
  - [  -0.0000000400000000,  0.0000008000000000, -0.0000003000000000 ]
  - [   0.0000015600000000, -0.0000012200000000,  0.0000010200000000 ]
  - [  -0.0000005700000000, -0.0000009000000000,  0.0000002100000000 ]
  - [  -0.0000007000000000,  0.0000013600000000,  0.0000002700000000 ]
  - [  -0.0000009800000000,  0.0000011400000000,  0.0000005800000000 ]
  - [  -0.0002491600000000,  0.0001489600000000,  0.0004483400000000 ]
  - [   0.0000015600000000,  0.0000004100000000,  0.0000001800000000 ]
  - [   0.0008197800000000,  0.0004681200000000,  0.0013861100000000 ]
  - [   0.0000086200000000, -0.0006167600000000,  0.0009186300000000 ]
  - [   0.0000014300000000,  0.0000018100000000,  0.0000008100000000 ]
  - [   0.0000002600000000, -0.0000005000000000, -0.0000004200000000 ]
  - [  -0.0000004600000000, -0.0000009100000000, -0.0000001400000000 ]
  - [  -0.0000006000000000,  0.0000016500000000, -0.0000001300000000 ]
  - [  -0.0000012700000000, -0.0000003900000000,  0.0000002000000000 ]
