phonopy:
  version: "2.45.1"
  frequency_unit_conversion_factor: 15.633302
  symmetry_tolerance: 1.00000e-05

space_group:
  type: "Fm-3m"
  number: 225
  Hall_symbol: "-F 4 2 3"

primitive_matrix:
- [  0.000000000000000,  1.000000000000000,  0.000000000000000 ]
- [  0.000000000000000,  0.000000000000000,  1.000000000000000 ]
- [  1.000000000000000, -0.000000000000000, -0.000000000000000 ]

supercell_matrix:
- [   3,   0,   0 ]
- [   0,   3,   0 ]
- [   0,   0,   3 ]

primitive_cell:
  lattice:
  - [     0.000000000000000,     0.000000000000000,     5.277122365446285 ] # a
  - [     4.570122717307616,    -0.000000010066227,     2.638561691067610 ] # b
  - [     1.523372880161881,     4.308753221366375,     2.638561691067610 ] # c
  points:
  - symbol: K # 1
    coordinates: [  0.750000000000000,  0.750000000000000,  0.750000000000000 ]
    mass: 39.098300
  - symbol: K # 2
    coordinates: [  0.250000000000000,  0.250000000000000,  0.250000000000000 ]
    mass: 39.098300
  - symbol: S # 3
    coordinates: [  0.000000000000000,  0.000000000000000,  0.000000000000000 ]
    mass: 32.065000
  reciprocal_lattice: # without 2pi
  - [    -0.109406273756073,    -0.077361948769159,     0.189497216617116 ] # a*
  - [     0.218812504844593,    -0.077361830347489,     0.000000000000000 ] # b*
  - [     0.000000000511196,     0.232085698076749,     0.000000000000000 ] # c*

unit_cell:
  lattice:
  - [     4.570122717307616,    -0.000000010066227,     2.638561691067610 ] # a
  - [     1.523372880161881,     4.308753221366376,     2.638561691067610 ] # b
  - [     0.000000000000000,     0.000000000000000,     5.277122365446285 ] # c
  points:
  - symbol: K # 1
    coordinates: [  0.750000000000000,  0.750000000000000,  0.750000000000000 ]
    mass: 39.098300
    reduced_to: 1
  - symbol: K # 2
    coordinates: [  0.250000000000000,  0.250000000000000,  0.250000000000000 ]
    mass: 39.098300
    reduced_to: 2
  - symbol: S # 3
    coordinates: [  0.000000000000000,  0.000000000000000,  0.000000000000000 ]
    mass: 32.065000
    reduced_to: 3

supercell:
  lattice:
  - [    13.710368151922850,    -0.000000030198681,     7.915685073202830 ] # a
  - [     4.570118640485643,    12.926259664099128,     7.915685073202830 ] # b
  - [     0.000000000000000,     0.000000000000000,    15.831367096338855 ] # c
  points:
  - symbol: K # 1
    coordinates: [  0.250000000000000,  0.250000000000000,  0.250000000000000 ]
    mass: 39.098300
    reduced_to: 1
  - symbol: K # 2
    coordinates: [  0.583333333333333,  0.250000000000000,  0.250000000000000 ]
    mass: 39.098300
    reduced_to: 1
  - symbol: K # 3
    coordinates: [  0.916666666666667,  0.250000000000000,  0.250000000000000 ]
    mass: 39.098300
    reduced_to: 1
  - symbol: K # 4
    coordinates: [  0.250000000000000,  0.583333333333333,  0.250000000000000 ]
    mass: 39.098300
    reduced_to: 1
  - symbol: K # 5
    coordinates: [  0.583333333333333,  0.583333333333333,  0.250000000000000 ]
    mass: 39.098300
    reduced_to: 1
  - symbol: K # 6
    coordinates: [  0.916666666666667,  0.583333333333333,  0.250000000000000 ]
    mass: 39.098300
    reduced_to: 1
  - symbol: K # 7
    coordinates: [  0.250000000000000,  0.916666666666667,  0.250000000000000 ]
    mass: 39.098300
    reduced_to: 1
  - symbol: K # 8
    coordinates: [  0.583333333333333,  0.916666666666667,  0.250000000000000 ]
    mass: 39.098300
    reduced_to: 1
  - symbol: K # 9
    coordinates: [  0.916666666666667,  0.916666666666667,  0.250000000000000 ]
    mass: 39.098300
    reduced_to: 1
  - symbol: K # 10
    coordinates: [  0.250000000000000,  0.250000000000000,  0.583333333333333 ]
    mass: 39.098300
    reduced_to: 1
  - symbol: K # 11
    coordinates: [  0.583333333333333,  0.250000000000000,  0.583333333333333 ]
    mass: 39.098300
    reduced_to: 1
  - symbol: K # 12
    coordinates: [  0.916666666666667,  0.250000000000000,  0.583333333333333 ]
    mass: 39.098300
    reduced_to: 1
  - symbol: K # 13
    coordinates: [  0.250000000000000,  0.583333333333333,  0.583333333333333 ]
    mass: 39.098300
    reduced_to: 1
  - symbol: K # 14
    coordinates: [  0.583333333333333,  0.583333333333333,  0.583333333333333 ]
    mass: 39.098300
    reduced_to: 1
  - symbol: K # 15
    coordinates: [  0.916666666666667,  0.583333333333333,  0.583333333333333 ]
    mass: 39.098300
    reduced_to: 1
  - symbol: K # 16
    coordinates: [  0.250000000000000,  0.916666666666667,  0.583333333333333 ]
    mass: 39.098300
    reduced_to: 1
  - symbol: K # 17
    coordinates: [  0.583333333333333,  0.916666666666667,  0.583333333333333 ]
    mass: 39.098300
    reduced_to: 1
  - symbol: K # 18
    coordinates: [  0.916666666666667,  0.916666666666667,  0.583333333333333 ]
    mass: 39.098300
    reduced_to: 1
  - symbol: K # 19
    coordinates: [  0.250000000000000,  0.250000000000000,  0.916666666666667 ]
    mass: 39.098300
    reduced_to: 1
  - symbol: K # 20
    coordinates: [  0.583333333333333,  0.250000000000000,  0.916666666666667 ]
    mass: 39.098300
    reduced_to: 1
  - symbol: K # 21
    coordinates: [  0.916666666666667,  0.250000000000000,  0.916666666666667 ]
    mass: 39.098300
    reduced_to: 1
  - symbol: K # 22
    coordinates: [  0.250000000000000,  0.583333333333333,  0.916666666666667 ]
    mass: 39.098300
    reduced_to: 1
  - symbol: K # 23
    coordinates: [  0.583333333333333,  0.583333333333333,  0.916666666666667 ]
    mass: 39.098300
    reduced_to: 1
  - symbol: K # 24
    coordinates: [  0.916666666666667,  0.583333333333333,  0.916666666666667 ]
    mass: 39.098300
    reduced_to: 1
  - symbol: K # 25
    coordinates: [  0.250000000000000,  0.916666666666667,  0.916666666666667 ]
    mass: 39.098300
    reduced_to: 1
  - symbol: K # 26
    coordinates: [  0.583333333333333,  0.916666666666667,  0.916666666666667 ]
    mass: 39.098300
    reduced_to: 1
  - symbol: K # 27
    coordinates: [  0.916666666666667,  0.916666666666667,  0.916666666666667 ]
    mass: 39.098300
    reduced_to: 1
  - symbol: K # 28
    coordinates: [  0.083333333333333,  0.083333333333333,  0.083333333333333 ]
    mass: 39.098300
    reduced_to: 28
  - symbol: K # 29
    coordinates: [  0.416666666666667,  0.083333333333333,  0.083333333333333 ]
    mass: 39.098300
    reduced_to: 28
  - symbol: K # 30
    coordinates: [  0.750000000000000,  0.083333333333333,  0.083333333333333 ]
    mass: 39.098300
    reduced_to: 28
  - symbol: K # 31
    coordinates: [  0.083333333333333,  0.416666666666667,  0.083333333333333 ]
    mass: 39.098300
    reduced_to: 28
  - symbol: K # 32
    coordinates: [  0.416666666666667,  0.416666666666667,  0.083333333333333 ]
    mass: 39.098300
    reduced_to: 28
  - symbol: K # 33
    coordinates: [  0.750000000000000,  0.416666666666667,  0.083333333333333 ]
    mass: 39.098300
    reduced_to: 28
  - symbol: K # 34
    coordinates: [  0.083333333333333,  0.750000000000000,  0.083333333333333 ]
    mass: 39.098300
    reduced_to: 28
  - symbol: K # 35
    coordinates: [  0.416666666666667,  0.750000000000000,  0.083333333333333 ]
    mass: 39.098300
    reduced_to: 28
  - symbol: K # 36
    coordinates: [  0.750000000000000,  0.750000000000000,  0.083333333333333 ]
    mass: 39.098300
    reduced_to: 28
  - symbol: K # 37
    coordinates: [  0.083333333333333,  0.083333333333333,  0.416666666666667 ]
    mass: 39.098300
    reduced_to: 28
  - symbol: K # 38
    coordinates: [  0.416666666666667,  0.083333333333333,  0.416666666666667 ]
    mass: 39.098300
    reduced_to: 28
  - symbol: K # 39
    coordinates: [  0.750000000000000,  0.083333333333333,  0.416666666666667 ]
    mass: 39.098300
    reduced_to: 28
  - symbol: K # 40
    coordinates: [  0.083333333333333,  0.416666666666667,  0.416666666666667 ]
    mass: 39.098300
    reduced_to: 28
  - symbol: K # 41
    coordinates: [  0.416666666666667,  0.416666666666667,  0.416666666666667 ]
    mass: 39.098300
    reduced_to: 28
  - symbol: K # 42
    coordinates: [  0.750000000000000,  0.416666666666667,  0.416666666666667 ]
    mass: 39.098300
    reduced_to: 28
  - symbol: K # 43
    coordinates: [  0.083333333333333,  0.750000000000000,  0.416666666666667 ]
    mass: 39.098300
    reduced_to: 28
  - symbol: K # 44
    coordinates: [  0.416666666666667,  0.750000000000000,  0.416666666666667 ]
    mass: 39.098300
    reduced_to: 28
  - symbol: K # 45
    coordinates: [  0.750000000000000,  0.750000000000000,  0.416666666666667 ]
    mass: 39.098300
    reduced_to: 28
  - symbol: K # 46
    coordinates: [  0.083333333333333,  0.083333333333333,  0.750000000000000 ]
    mass: 39.098300
    reduced_to: 28
  - symbol: K # 47
    coordinates: [  0.416666666666667,  0.083333333333333,  0.750000000000000 ]
    mass: 39.098300
    reduced_to: 28
  - symbol: K # 48
    coordinates: [  0.750000000000000,  0.083333333333333,  0.750000000000000 ]
    mass: 39.098300
    reduced_to: 28
  - symbol: K # 49
    coordinates: [  0.083333333333333,  0.416666666666667,  0.750000000000000 ]
    mass: 39.098300
    reduced_to: 28
  - symbol: K # 50
    coordinates: [  0.416666666666667,  0.416666666666667,  0.750000000000000 ]
    mass: 39.098300
    reduced_to: 28
  - symbol: K # 51
    coordinates: [  0.750000000000000,  0.416666666666667,  0.750000000000000 ]
    mass: 39.098300
    reduced_to: 28
  - symbol: K # 52
    coordinates: [  0.083333333333333,  0.750000000000000,  0.750000000000000 ]
    mass: 39.098300
    reduced_to: 28
  - symbol: K # 53
    coordinates: [  0.416666666666667,  0.750000000000000,  0.750000000000000 ]
    mass: 39.098300
    reduced_to: 28
  - symbol: K # 54
    coordinates: [  0.750000000000000,  0.750000000000000,  0.750000000000000 ]
    mass: 39.098300
    reduced_to: 28
  - symbol: S # 55
    coordinates: [  0.000000000000000,  0.000000000000000,  0.000000000000000 ]
    mass: 32.065000
    reduced_to: 55
  - symbol: S # 56
    coordinates: [  0.333333333333333,  0.000000000000000,  0.000000000000000 ]
    mass: 32.065000
    reduced_to: 55
  - symbol: S # 57
    coordinates: [  0.666666666666667,  0.000000000000000,  0.000000000000000 ]
    mass: 32.065000
    reduced_to: 55
  - symbol: S # 58
    coordinates: [  0.000000000000000,  0.333333333333333,  0.000000000000000 ]
    mass: 32.065000
    reduced_to: 55
  - symbol: S # 59
    coordinates: [  0.333333333333333,  0.333333333333333,  0.000000000000000 ]
    mass: 32.065000
    reduced_to: 55
  - symbol: S # 60
    coordinates: [  0.666666666666667,  0.333333333333333,  0.000000000000000 ]
    mass: 32.065000
    reduced_to: 55
  - symbol: S # 61
    coordinates: [  0.000000000000000,  0.666666666666667,  0.000000000000000 ]
    mass: 32.065000
    reduced_to: 55
  - symbol: S # 62
    coordinates: [  0.333333333333333,  0.666666666666667,  0.000000000000000 ]
    mass: 32.065000
    reduced_to: 55
  - symbol: S # 63
    coordinates: [  0.666666666666667,  0.666666666666667,  0.000000000000000 ]
    mass: 32.065000
    reduced_to: 55
  - symbol: S # 64
    coordinates: [  0.000000000000000,  0.000000000000000,  0.333333333333333 ]
    mass: 32.065000
    reduced_to: 55
  - symbol: S # 65
    coordinates: [  0.333333333333333,  0.000000000000000,  0.333333333333333 ]
    mass: 32.065000
    reduced_to: 55
  - symbol: S # 66
    coordinates: [  0.666666666666667,  0.000000000000000,  0.333333333333333 ]
    mass: 32.065000
    reduced_to: 55
  - symbol: S # 67
    coordinates: [  0.000000000000000,  0.333333333333333,  0.333333333333333 ]
    mass: 32.065000
    reduced_to: 55
  - symbol: S # 68
    coordinates: [  0.333333333333333,  0.333333333333333,  0.333333333333333 ]
    mass: 32.065000
    reduced_to: 55
  - symbol: S # 69
    coordinates: [  0.666666666666667,  0.333333333333333,  0.333333333333333 ]
    mass: 32.065000
    reduced_to: 55
  - symbol: S # 70
    coordinates: [  0.000000000000000,  0.666666666666667,  0.333333333333333 ]
    mass: 32.065000
    reduced_to: 55
  - symbol: S # 71
    coordinates: [  0.333333333333333,  0.666666666666667,  0.333333333333333 ]
    mass: 32.065000
    reduced_to: 55
  - symbol: S # 72
    coordinates: [  0.666666666666667,  0.666666666666667,  0.333333333333333 ]
    mass: 32.065000
    reduced_to: 55
  - symbol: S # 73
    coordinates: [  0.000000000000000,  0.000000000000000,  0.666666666666667 ]
    mass: 32.065000
    reduced_to: 55
  - symbol: S # 74
    coordinates: [  0.333333333333333,  0.000000000000000,  0.666666666666667 ]
    mass: 32.065000
    reduced_to: 55
  - symbol: S # 75
    coordinates: [  0.666666666666667,  0.000000000000000,  0.666666666666667 ]
    mass: 32.065000
    reduced_to: 55
  - symbol: S # 76
    coordinates: [  0.000000000000000,  0.333333333333333,  0.666666666666667 ]
    mass: 32.065000
    reduced_to: 55
  - symbol: S # 77
    coordinates: [  0.333333333333333,  0.333333333333333,  0.666666666666667 ]
    mass: 32.065000
    reduced_to: 55
  - symbol: S # 78
    coordinates: [  0.666666666666667,  0.333333333333333,  0.666666666666667 ]
    mass: 32.065000
    reduced_to: 55
  - symbol: S # 79
    coordinates: [  0.000000000000000,  0.666666666666667,  0.666666666666667 ]
    mass: 32.065000
    reduced_to: 55
  - symbol: S # 80
    coordinates: [  0.333333333333333,  0.666666666666667,  0.666666666666667 ]
    mass: 32.065000
    reduced_to: 55
  - symbol: S # 81
    coordinates: [  0.666666666666667,  0.666666666666667,  0.666666666666667 ]
    mass: 32.065000
    reduced_to: 55

displacements:
- atom:    1
  displacement:
    [   0.0086602539475839, -0.0000000000190752,  0.0050000001563358 ]
  forces:
  - [  -0.0148074200000000, -0.0000876200000000, -0.0086906800000000 ]
  - [   0.0005768000000000, -0.0001443300000000,  0.0000971700000000 ]
  - [   0.0003745800000000,  0.0001442100000000,  0.0004531300000000 ]
  - [  -0.0001253600000000,  0.0005763600000000,  0.0000313700000000 ]
  - [   0.0001447100000000,  0.0000002000000000,  0.0000838400000000 ]
  - [  -0.0000351600000000, -0.0005801700000000, -0.0001241800000000 ]
  - [  -0.0001248000000000,  0.0001459000000000,  0.0000315500000000 ]
  - [  -0.0000357600000000, -0.0001442200000000, -0.0001246200000000 ]
  - [   0.0001456700000000,  0.0000006800000000,  0.0000849900000000 ]
  - [  -0.0003676300000000, -0.0001076500000000,  0.0004517300000000 ]
  - [   0.0001449200000000, -0.0000002200000000,  0.0000850500000000 ]
  - [   0.0002069200000000,  0.0001076900000000, -0.0005454800000000 ]
  - [  -0.0000529600000000,  0.0000695000000000,  0.0000853000000000 ]
  - [   0.0000453700000000, -0.0000714300000000, -0.0000878200000000 ]
  - [   0.0000061700000000, -0.0000003700000000,  0.0000043700000000 ]
  - [  -0.0002148900000000, -0.0000004900000000, -0.0001249500000000 ]
  - [   0.0000720900000000, -0.0000921900000000,  0.0001174000000000 ]
  - [   0.0001376900000000,  0.0000929600000000,  0.0000053100000000 ]
  - [  -0.0001631200000000,  0.0000360500000000,  0.0000993700000000 ]
  - [   0.0000014000000000, -0.0000373900000000, -0.0001897200000000 ]
  - [   0.0001445100000000, -0.0000007700000000,  0.0000841300000000 ]
  - [  -0.0002151700000000, -0.0000016400000000, -0.0001227000000000 ]
  - [   0.0001371100000000,  0.0000913700000000,  0.0000036800000000 ]
  - [   0.0000725500000000, -0.0000927800000000,  0.0001183400000000 ]
  - [  -0.0000535700000000,  0.0000702700000000,  0.0000847100000000 ]
  - [   0.0000068200000000,  0.0000012800000000,  0.0000056800000000 ]
  - [   0.0000459300000000, -0.0000697000000000, -0.0000857100000000 ]
  - [  -0.0000567800000000,  0.0000819900000000,  0.0001011900000000 ]
  - [  -0.0005768400000000,  0.0000035700000000, -0.0003273600000000 ]
  - [   0.0000598600000000, -0.0000825100000000, -0.0001011700000000 ]
  - [   0.0004215800000000, -0.0020398200000000,  0.0024338600000000 ]
  - [   0.0023282800000000,  0.0020578500000000, -0.0008620800000000 ]
  - [   0.0001744000000000, -0.0000003100000000,  0.0000992700000000 ]
  - [  -0.0001735800000000,  0.0000009600000000, -0.0001007300000000 ]
  - [   0.0001023300000000,  0.0000746400000000,  0.0000215800000000 ]
  - [   0.0000706600000000, -0.0000728600000000,  0.0000780600000000 ]
  - [   0.0020150500000000,  0.0024680500000000, -0.0003271500000000 ]
  - [   0.0007216500000000, -0.0024871500000000,  0.0019209400000000 ]
  - [   0.0001755000000000, -0.0000003200000000,  0.0001008100000000 ]
  - [  -0.0014811600000000, -0.0000042200000000, -0.0008626300000000 ]
  - [   0.0003988600000000,  0.0002025100000000,  0.0005616300000000 ]
  - [   0.0006789700000000, -0.0002008000000000,  0.0000660000000000 ]
  - [  -0.0000864300000000,  0.0001411700000000,  0.0000221600000000 ]
  - [   0.0001117700000000,  0.0000012800000000,  0.0000658800000000 ]
  - [  -0.0000242400000000, -0.0001401000000000, -0.0000859500000000 ]
  - [  -0.0001731700000000, -0.0000003600000000, -0.0000998000000000 ]
  - [   0.0000575400000000, -0.0000547400000000,  0.0001015500000000 ]
  - [   0.0001163500000000,  0.0000552300000000,  0.0000005100000000 ]
  - [  -0.0001311600000000,  0.0000118700000000,  0.0001013800000000 ]
  - [   0.0001120900000000, -0.0000005800000000,  0.0000669700000000 ]
  - [   0.0000208200000000, -0.0000122900000000, -0.0001651200000000 ]
  - [  -0.0000537800000000,  0.0000672900000000,  0.0000788700000000 ]
  - [   0.0000396700000000, -0.0000666500000000, -0.0000863300000000 ]
  - [   0.0000140700000000,  0.0000002000000000,  0.0000079500000000 ]
  - [  -0.0000110400000000, -0.0000007900000000, -0.0000071500000000 ]
  - [   0.0000438300000000, -0.0000571500000000, -0.0000658900000000 ]
  - [  -0.0000324800000000,  0.0000529200000000,  0.0000687800000000 ]
  - [  -0.0000921500000000, -0.0000488100000000, -0.0005530300000000 ]
  - [   0.0013965300000000,  0.0000009200000000,  0.0008156100000000 ]
  - [  -0.0005229600000000,  0.0000506700000000,  0.0002015900000000 ]
  - [   0.0001466700000000,  0.0004613400000000, -0.0001406600000000 ]
  - [  -0.0000461600000000, -0.0004594900000000,  0.0001975500000000 ]
  - [  -0.0001037800000000, -0.0000002000000000, -0.0000606500000000 ]
  - [  -0.0002124400000000, -0.0003925200000000, -0.0003444900000000 ]
  - [   0.0013990700000000,  0.0000076300000000,  0.0008112800000000 ]
  - [  -0.0004024200000000,  0.0003917400000000, -0.0000114600000000 ]
  - [   0.0049478000000000, -0.0012499600000000,  0.0008144800000000 ]
  - [   0.0032695300000000,  0.0013293900000000,  0.0040567600000000 ]
  - [  -0.0007116000000000,  0.0000004000000000, -0.0004110400000000 ]
  - [   0.0003423500000000,  0.0000017800000000,  0.0001976900000000 ]
  - [  -0.0001116000000000, -0.0003410000000000, -0.0002006800000000 ]
  - [  -0.0002287700000000,  0.0003403600000000,  0.0000026200000000 ]
  - [  -0.0001339900000000, -0.0003369600000000,  0.0003471800000000 ]
  - [   0.0002349800000000,  0.0003358100000000, -0.0002898000000000 ]
  - [  -0.0001049600000000, -0.0000008500000000, -0.0000613900000000 ]
  - [   0.0003431000000000,  0.0000002600000000,  0.0001977300000000 ]
  - [   0.0000096500000000,  0.0000033600000000, -0.0004137000000000 ]
  - [  -0.0003496600000000, -0.0000018600000000,  0.0002099500000000 ]
  - [   0.0000307800000000, -0.0000469600000000, -0.0000612000000000 ]
  - [   0.0000053700000000,  0.0000017200000000,  0.0000007400000000 ]
  - [  -0.0000354700000000,  0.0000488400000000,  0.0000577200000000 ]
- atom:   55
  displacement:
    [   0.0086602539475839, -0.0000000000190752,  0.0050000001563358 ]
  forces:
  - [  -0.0000110000000000, -0.0000003800000000, -0.0000063200000000 ]
  - [  -0.0001949700000000,  0.0002822200000000,  0.0003484900000000 ]
  - [   0.0002046100000000, -0.0002828200000000, -0.0003425900000000 ]
  - [   0.0001482900000000,  0.0001180900000000, -0.0001391000000000 ]
  - [  -0.0001057700000000, -0.0000003300000000, -0.0000607400000000 ]
  - [  -0.0000475900000000, -0.0001202300000000,  0.0001975400000000 ]
  - [  -0.0000905300000000,  0.0002924400000000, -0.0005535500000000 ]
  - [  -0.0005242400000000, -0.0002910300000000,  0.0001974300000000 ]
  - [   0.0014085100000000,  0.0000059300000000,  0.0007981800000000 ]
  - [   0.0000274700000000, -0.0002230600000000,  0.0000711200000000 ]
  - [  -0.0001052700000000, -0.0000003400000000, -0.0000597200000000 ]
  - [   0.0000730000000000,  0.0002229500000000, -0.0000127100000000 ]
  - [   0.0000313200000000, -0.0000488800000000, -0.0000595200000000 ]
  - [  -0.0000372700000000,  0.0000470800000000,  0.0000576700000000 ]
  - [   0.0000042900000000, -0.0000000000000000,  0.0000037400000000 ]
  - [   0.0003428600000000, -0.0000004100000000,  0.0001973400000000 ]
  - [  -0.0003517900000000, -0.0000026300000000,  0.0002139500000000 ]
  - [   0.0000089200000000,  0.0000033700000000, -0.0004097900000000 ]
  - [  -0.0003727500000000, -0.0005065000000000, -0.0000636600000000 ]
  - [  -0.0002436900000000,  0.0005046300000000, -0.0002894500000000 ]
  - [   0.0014002300000000, -0.0000162700000000,  0.0008094300000000 ]
  - [   0.0003425900000000, -0.0000014000000000,  0.0001992800000000 ]
  - [  -0.0002304900000000,  0.0003401200000000,  0.0000029200000000 ]
  - [  -0.0001124200000000, -0.0003411400000000, -0.0001994600000000 ]
  - [   0.0051490000000000, -0.0013293300000000,  0.0008019900000000 ]
  - [  -0.0007122500000000,  0.0000012700000000, -0.0004096400000000 ]
  - [   0.0031791200000000,  0.0012496400000000,  0.0038773000000000 ]
  - [   0.0032692600000000,  0.0013295300000000,  0.0040587200000000 ]
  - [  -0.0007116200000000, -0.0000000600000000, -0.0004110500000000 ]
  - [   0.0049470700000000, -0.0012492000000000,  0.0008149000000000 ]
  - [  -0.0001112600000000, -0.0003413000000000, -0.0002002100000000 ]
  - [  -0.0002304800000000,  0.0003403300000000,  0.0000026100000000 ]
  - [   0.0003417100000000, -0.0000002500000000,  0.0001968500000000 ]
  - [   0.0014011900000000,  0.0000162300000000,  0.0008079900000000 ]
  - [  -0.0002424300000000,  0.0005070000000000, -0.0002910400000000 ]
  - [  -0.0003725600000000, -0.0005047500000000, -0.0000642800000000 ]
  - [   0.0000096900000000,  0.0000026900000000, -0.0004108800000000 ]
  - [  -0.0003510000000000, -0.0000027100000000,  0.0002125400000000 ]
  - [   0.0003430200000000,  0.0000003900000000,  0.0001980100000000 ]
  - [   0.0000061800000000, -0.0000005700000000,  0.0000021400000000 ]
  - [  -0.0000367400000000,  0.0000480300000000,  0.0000577400000000 ]
  - [   0.0000313100000000, -0.0000488100000000, -0.0000598100000000 ]
  - [   0.0000749700000000,  0.0002238400000000, -0.0000116200000000 ]
  - [  -0.0001053700000000,  0.0000002300000000, -0.0000597900000000 ]
  - [   0.0000257400000000, -0.0002232600000000,  0.0000705800000000 ]
  - [   0.0013943200000000, -0.0000061200000000,  0.0008217200000000 ]
  - [  -0.0005238300000000, -0.0002917600000000,  0.0001985600000000 ]
  - [  -0.0000905700000000,  0.0002919400000000, -0.0005514300000000 ]
  - [  -0.0000453900000000, -0.0001193500000000,  0.0001985700000000 ]
  - [  -0.0001046800000000, -0.0000004000000000, -0.0000596300000000 ]
  - [   0.0001468100000000,  0.0001194300000000, -0.0001402100000000 ]
  - [   0.0002054300000000, -0.0002822500000000, -0.0003420700000000 ]
  - [  -0.0001948800000000,  0.0002829100000000,  0.0003488600000000 ]
  - [  -0.0000111300000000,  0.0000003100000000, -0.0000061200000000 ]
  - [  -0.0216785100000000, -0.0000003200000000, -0.0125170700000000 ]
  - [   0.0020253300000000, -0.0000017500000000,  0.0011693500000000 ]
  - [   0.0020309900000000, -0.0000015900000000,  0.0011709400000000 ]
  - [  -0.0002148600000000,  0.0016295200000000, -0.0001984900000000 ]
  - [   0.0003259300000000,  0.0000016900000000,  0.0001875000000000 ]
  - [  -0.0002721300000000, -0.0016282800000000, -0.0000832700000000 ]
  - [  -0.0002122900000000,  0.0016303400000000, -0.0001952400000000 ]
  - [  -0.0002777100000000, -0.0016285400000000, -0.0000872500000000 ]
  - [   0.0003271300000000, -0.0000004700000000,  0.0001876700000000 ]
  - [  -0.0010032800000000, -0.0006047500000000,  0.0011682100000000 ]
  - [   0.0003250600000000, -0.0000018700000000,  0.0001880700000000 ]
  - [   0.0005155400000000,  0.0006009500000000, -0.0014522800000000 ]
  - [   0.0000369700000000,  0.0001024600000000,  0.0001877800000000 ]
  - [   0.0001829800000000, -0.0000999400000000, -0.0000597400000000 ]
  - [  -0.0002197500000000,  0.0000004700000000, -0.0001272700000000 ]
  - [  -0.0001491600000000,  0.0000035500000000, -0.0000875900000000 ]
  - [  -0.0000196000000000, -0.0002833400000000,  0.0002207200000000 ]
  - [   0.0001817600000000,  0.0002837500000000, -0.0001272200000000 ]
  - [  -0.0009999400000000, -0.0006016200000000,  0.0011705400000000 ]
  - [   0.0005108800000000,  0.0006019500000000, -0.0014534500000000 ]
  - [   0.0003261200000000, -0.0000010600000000,  0.0001871000000000 ]
  - [  -0.0001499800000000, -0.0000012400000000, -0.0000854800000000 ]
  - [   0.0001808700000000,  0.0002848400000000, -0.0001290800000000 ]
  - [  -0.0000183800000000, -0.0002828000000000,  0.0002174000000000 ]
  - [   0.0000379200000000,  0.0001026400000000,  0.0001868200000000 ]
  - [  -0.0002205400000000,  0.0000015600000000, -0.0001294500000000 ]
  - [   0.0001837100000000, -0.0001012500000000, -0.0000608400000000 ]
