phonopy:
  version: "2.45.1"
  frequency_unit_conversion_factor: 15.633302
  symmetry_tolerance: 1.00000e-05

space_group:
  type: "Fm-3m"
  number: 225
  Hall_symbol: "-F 4 2 3"

primitive_matrix:
- [ -1.000000000000000, -0.000000000000000,  0.000000000000000 ]
- [  1.000000000000000,  1.000000000000000,  1.000000000000000 ]
- [ -0.000000000000000,  0.000000000000000, -1.000000000000000 ]

supercell_matrix:
- [   3,   0,   0 ]
- [   0,   3,   0 ]
- [   0,   0,   3 ]

primitive_cell:
  lattice:
  - [    -2.469099920000000,     3.491833900000000,     0.000000000000000 ] # a
  - [     1.234549460000000,     3.491833900000000,     2.138303460000000 ] # b
  - [     1.234549450000000,     3.491833890000000,    -2.138301410000000 ] # c
  points:
  - symbol: Sr # 1
    coordinates: [  0.000000000000000,  0.000000000000000,  0.000000000000000 ]
    mass: 87.620000
  - symbol: S # 2
    coordinates: [  0.500000000000000,  0.500000000000000,  0.500000000000000 ]
    mass: 32.065000
  reciprocal_lattice: # without 2pi
  - [    -0.270003960491724,     0.095460795758413,     0.000000000408135 ] # a*
  - [     0.135001915725675,     0.095460789047873,     0.233830346289479 ] # b*
  - [     0.135002045152671,     0.095460880566597,    -0.233830347367263 ] # c*

unit_cell:
  lattice:
  - [     3.703649380000000,     0.000000000000000,     2.138303460000000 ] # a
  - [     1.234549460000000,     3.491833900000000,     2.138303460000000 ] # b
  - [     0.000000010000000,     0.000000010000000,     4.276604870000000 ] # c
  points:
  - symbol: Sr # 1
    coordinates: [  0.000000000000000,  0.000000000000000,  0.000000000000000 ]
    mass: 87.620000
    reduced_to: 1
  - symbol: S # 2
    coordinates: [  0.500000000000000,  0.500000000000000,  0.500000000000000 ]
    mass: 32.065000
    reduced_to: 2

supercell:
  lattice:
  - [    11.110948140000000,     0.000000000000000,     6.414910380000000 ] # a
  - [     3.703648380000000,    10.475501700000001,     6.414910380000000 ] # b
  - [     0.000000030000000,     0.000000030000000,    12.829814610000000 ] # c
  points:
  - symbol: Sr # 1
    coordinates: [  0.000000000000000,  0.000000000000000,  0.000000000000000 ]
    mass: 87.620000
    reduced_to: 1
  - symbol: Sr # 2
    coordinates: [  0.333333333333333,  0.000000000000000,  0.000000000000000 ]
    mass: 87.620000
    reduced_to: 1
  - symbol: Sr # 3
    coordinates: [  0.666666666666667,  0.000000000000000,  0.000000000000000 ]
    mass: 87.620000
    reduced_to: 1
  - symbol: Sr # 4
    coordinates: [  0.000000000000000,  0.333333333333333,  0.000000000000000 ]
    mass: 87.620000
    reduced_to: 1
  - symbol: Sr # 5
    coordinates: [  0.333333333333333,  0.333333333333333,  0.000000000000000 ]
    mass: 87.620000
    reduced_to: 1
  - symbol: Sr # 6
    coordinates: [  0.666666666666667,  0.333333333333333,  0.000000000000000 ]
    mass: 87.620000
    reduced_to: 1
  - symbol: Sr # 7
    coordinates: [  0.000000000000000,  0.666666666666667,  0.000000000000000 ]
    mass: 87.620000
    reduced_to: 1
  - symbol: Sr # 8
    coordinates: [  0.333333333333333,  0.666666666666667,  0.000000000000000 ]
    mass: 87.620000
    reduced_to: 1
  - symbol: Sr # 9
    coordinates: [  0.666666666666667,  0.666666666666667,  0.000000000000000 ]
    mass: 87.620000
    reduced_to: 1
  - symbol: Sr # 10
    coordinates: [  0.000000000000000,  0.000000000000000,  0.333333333333333 ]
    mass: 87.620000
    reduced_to: 1
  - symbol: Sr # 11
    coordinates: [  0.333333333333333,  0.000000000000000,  0.333333333333333 ]
    mass: 87.620000
    reduced_to: 1
  - symbol: Sr # 12
    coordinates: [  0.666666666666667,  0.000000000000000,  0.333333333333333 ]
    mass: 87.620000
    reduced_to: 1
  - symbol: Sr # 13
    coordinates: [  0.000000000000000,  0.333333333333333,  0.333333333333333 ]
    mass: 87.620000
    reduced_to: 1
  - symbol: Sr # 14
    coordinates: [  0.333333333333333,  0.333333333333333,  0.333333333333333 ]
    mass: 87.620000
    reduced_to: 1
  - symbol: Sr # 15
    coordinates: [  0.666666666666667,  0.333333333333333,  0.333333333333333 ]
    mass: 87.620000
    reduced_to: 1
  - symbol: Sr # 16
    coordinates: [  0.000000000000000,  0.666666666666667,  0.333333333333333 ]
    mass: 87.620000
    reduced_to: 1
  - symbol: Sr # 17
    coordinates: [  0.333333333333333,  0.666666666666667,  0.333333333333333 ]
    mass: 87.620000
    reduced_to: 1
  - symbol: Sr # 18
    coordinates: [  0.666666666666667,  0.666666666666667,  0.333333333333333 ]
    mass: 87.620000
    reduced_to: 1
  - symbol: Sr # 19
    coordinates: [  0.000000000000000,  0.000000000000000,  0.666666666666667 ]
    mass: 87.620000
    reduced_to: 1
  - symbol: Sr # 20
    coordinates: [  0.333333333333333,  0.000000000000000,  0.666666666666667 ]
    mass: 87.620000
    reduced_to: 1
  - symbol: Sr # 21
    coordinates: [  0.666666666666667,  0.000000000000000,  0.666666666666667 ]
    mass: 87.620000
    reduced_to: 1
  - symbol: Sr # 22
    coordinates: [  0.000000000000000,  0.333333333333333,  0.666666666666667 ]
    mass: 87.620000
    reduced_to: 1
  - symbol: Sr # 23
    coordinates: [  0.333333333333333,  0.333333333333333,  0.666666666666667 ]
    mass: 87.620000
    reduced_to: 1
  - symbol: Sr # 24
    coordinates: [  0.666666666666667,  0.333333333333333,  0.666666666666667 ]
    mass: 87.620000
    reduced_to: 1
  - symbol: Sr # 25
    coordinates: [  0.000000000000000,  0.666666666666667,  0.666666666666667 ]
    mass: 87.620000
    reduced_to: 1
  - symbol: Sr # 26
    coordinates: [  0.333333333333333,  0.666666666666667,  0.666666666666667 ]
    mass: 87.620000
    reduced_to: 1
  - symbol: Sr # 27
    coordinates: [  0.666666666666667,  0.666666666666667,  0.666666666666667 ]
    mass: 87.620000
    reduced_to: 1
  - symbol: S # 28
    coordinates: [  0.166666666666667,  0.166666666666667,  0.166666666666667 ]
    mass: 32.065000
    reduced_to: 28
  - symbol: S # 29
    coordinates: [  0.500000000000000,  0.166666666666667,  0.166666666666667 ]
    mass: 32.065000
    reduced_to: 28
  - symbol: S # 30
    coordinates: [  0.833333333333333,  0.166666666666667,  0.166666666666667 ]
    mass: 32.065000
    reduced_to: 28
  - symbol: S # 31
    coordinates: [  0.166666666666667,  0.500000000000000,  0.166666666666667 ]
    mass: 32.065000
    reduced_to: 28
  - symbol: S # 32
    coordinates: [  0.500000000000000,  0.500000000000000,  0.166666666666667 ]
    mass: 32.065000
    reduced_to: 28
  - symbol: S # 33
    coordinates: [  0.833333333333333,  0.500000000000000,  0.166666666666667 ]
    mass: 32.065000
    reduced_to: 28
  - symbol: S # 34
    coordinates: [  0.166666666666667,  0.833333333333333,  0.166666666666667 ]
    mass: 32.065000
    reduced_to: 28
  - symbol: S # 35
    coordinates: [  0.500000000000000,  0.833333333333333,  0.166666666666667 ]
    mass: 32.065000
    reduced_to: 28
  - symbol: S # 36
    coordinates: [  0.833333333333333,  0.833333333333333,  0.166666666666667 ]
    mass: 32.065000
    reduced_to: 28
  - symbol: S # 37
    coordinates: [  0.166666666666667,  0.166666666666667,  0.500000000000000 ]
    mass: 32.065000
    reduced_to: 28
  - symbol: S # 38
    coordinates: [  0.500000000000000,  0.166666666666667,  0.500000000000000 ]
    mass: 32.065000
    reduced_to: 28
  - symbol: S # 39
    coordinates: [  0.833333333333333,  0.166666666666667,  0.500000000000000 ]
    mass: 32.065000
    reduced_to: 28
  - symbol: S # 40
    coordinates: [  0.166666666666667,  0.500000000000000,  0.500000000000000 ]
    mass: 32.065000
    reduced_to: 28
  - symbol: S # 41
    coordinates: [  0.500000000000000,  0.500000000000000,  0.500000000000000 ]
    mass: 32.065000
    reduced_to: 28
  - symbol: S # 42
    coordinates: [  0.833333333333333,  0.500000000000000,  0.500000000000000 ]
    mass: 32.065000
    reduced_to: 28
  - symbol: S # 43
    coordinates: [  0.166666666666667,  0.833333333333333,  0.500000000000000 ]
    mass: 32.065000
    reduced_to: 28
  - symbol: S # 44
    coordinates: [  0.500000000000000,  0.833333333333333,  0.500000000000000 ]
    mass: 32.065000
    reduced_to: 28
  - symbol: S # 45
    coordinates: [  0.833333333333333,  0.833333333333333,  0.500000000000000 ]
    mass: 32.065000
    reduced_to: 28
  - symbol: S # 46
    coordinates: [  0.166666666666667,  0.166666666666667,  0.833333333333333 ]
    mass: 32.065000
    reduced_to: 28
  - symbol: S # 47
    coordinates: [  0.500000000000000,  0.166666666666667,  0.833333333333333 ]
    mass: 32.065000
    reduced_to: 28
  - symbol: S # 48
    coordinates: [  0.833333333333333,  0.166666666666667,  0.833333333333333 ]
    mass: 32.065000
    reduced_to: 28
  - symbol: S # 49
    coordinates: [  0.166666666666667,  0.500000000000000,  0.833333333333333 ]
    mass: 32.065000
    reduced_to: 28
  - symbol: S # 50
    coordinates: [  0.500000000000000,  0.500000000000000,  0.833333333333333 ]
    mass: 32.065000
    reduced_to: 28
  - symbol: S # 51
    coordinates: [  0.833333333333333,  0.500000000000000,  0.833333333333333 ]
    mass: 32.065000
    reduced_to: 28
  - symbol: S # 52
    coordinates: [  0.166666666666667,  0.833333333333333,  0.833333333333333 ]
    mass: 32.065000
    reduced_to: 28
  - symbol: S # 53
    coordinates: [  0.500000000000000,  0.833333333333333,  0.833333333333333 ]
    mass: 32.065000
    reduced_to: 28
  - symbol: S # 54
    coordinates: [  0.833333333333333,  0.833333333333333,  0.833333333333333 ]
    mass: 32.065000
    reduced_to: 28

displacements:
- atom:    1
  displacement:
    [   0.0086602535381956,  0.0000000000000000,  0.0050000008654169 ]
  forces:
  - [  -0.0403083300000000, -0.0000006200000000, -0.0232698100000000 ]
  - [   0.0059163200000000, -0.0000004500000000,  0.0034158300000000 ]
  - [   0.0058105400000000, -0.0000009200000000,  0.0033545900000000 ]
  - [  -0.0009959900000000,  0.0031930800000000,  0.0021480700000000 ]
  - [   0.0006827600000000,  0.0000004100000000,  0.0003907000000000 ]
  - [   0.0013570300000000, -0.0031730800000000, -0.0019229800000000 ]
  - [  -0.0009922800000000,  0.0031727700000000,  0.0021374300000000 ]
  - [   0.0013629300000000, -0.0031940600000000, -0.0019298300000000 ]
  - [   0.0006819400000000, -0.0000005200000000,  0.0003986600000000 ]
  - [  -0.0017169800000000,  0.0011571400000000,  0.0033954300000000 ]
  - [   0.0006837500000000, -0.0000013500000000,  0.0003951700000000 ]
  - [   0.0020726000000000, -0.0011583800000000, -0.0031634100000000 ]
  - [  -0.0004486600000000,  0.0003990600000000,  0.0003947200000000 ]
  - [   0.0001191600000000, -0.0003989200000000, -0.0005840100000000 ]
  - [   0.0003120200000000, -0.0000003200000000,  0.0001788200000000 ]
  - [  -0.0033457600000000,  0.0000059900000000, -0.0019348400000000 ]
  - [   0.0013095300000000, -0.0014105700000000,  0.0019085200000000 ]
  - [   0.0022955000000000,  0.0014033700000000,  0.0001800100000000 ]
  - [  -0.0017053600000000,  0.0011560400000000,  0.0033740700000000 ]
  - [   0.0020833100000000, -0.0011588500000000, -0.0031805800000000 ]
  - [   0.0006862600000000, -0.0000003100000000,  0.0003922500000000 ]
  - [  -0.0033482700000000, -0.0000047100000000, -0.0019272400000000 ]
  - [   0.0023060000000000,  0.0014111200000000,  0.0001788400000000 ]
  - [   0.0013028900000000, -0.0014021300000000,  0.0018953000000000 ]
  - [  -0.0004464100000000,  0.0004009300000000,  0.0003923800000000 ]
  - [   0.0003117800000000,  0.0000011500000000,  0.0001786800000000 ]
  - [   0.0001182500000000, -0.0003977000000000, -0.0005874400000000 ]
  - [  -0.0002516400000000, -0.0007414600000000, -0.0013559900000000 ]
  - [  -0.0012980400000000,  0.0007381100000000,  0.0004566100000000 ]
  - [   0.0030103400000000, -0.0000139000000000,  0.0017087200000000 ]
  - [   0.0007927500000000, -0.0000007000000000,  0.0004590900000000 ]
  - [  -0.0007042200000000,  0.0009699000000000,  0.0002971200000000 ]
  - [  -0.0000886700000000, -0.0009674800000000, -0.0007611700000000 ]
  - [   0.0052520000000000, -0.0032092900000000,  0.0056502200000000 ]
  - [  -0.0020724500000000,  0.0000037700000000, -0.0011997700000000 ]
  - [   0.0072449700000000,  0.0029945300000000,  0.0017369100000000 ]
  - [   0.0007926000000000, -0.0000000900000000,  0.0004572200000000 ]
  - [  -0.0009584800000000,  0.0002541500000000,  0.0007413100000000 ]
  - [   0.0001652100000000, -0.0002546500000000, -0.0011956100000000 ]
  - [   0.0005209300000000, -0.0000014200000000,  0.0003024000000000 ]
  - [  -0.0010455300000000, -0.0000000500000000, -0.0006032400000000 ]
  - [   0.0005234800000000, -0.0000004700000000,  0.0003018700000000 ]
  - [   0.0001606600000000, -0.0002531400000000, -0.0011985500000000 ]
  - [  -0.0009548700000000,  0.0002564800000000,  0.0007389500000000 ]
  - [   0.0007961700000000,  0.0000007200000000,  0.0004586900000000 ]
  - [   0.0075215300000000,  0.0032096900000000,  0.0017212000000000 ]
  - [  -0.0020765100000000, -0.0000024100000000, -0.0011913600000000 ]
  - [   0.0051302400000000, -0.0029929700000000,  0.0054042300000000 ]
  - [  -0.0000926300000000, -0.0009710100000000, -0.0007564700000000 ]
  - [  -0.0007020800000000,  0.0009661300000000,  0.0003041500000000 ]
  - [   0.0007952700000000, -0.0000023300000000,  0.0004573400000000 ]
  - [   0.0029860000000000,  0.0000154100000000,  0.0017493800000000 ]
  - [  -0.0012994000000000,  0.0007414500000000,  0.0004604800000000 ]
  - [  -0.0002520400000000, -0.0007369200000000, -0.0013531200000000 ]
- atom:   28
  displacement:
    [   0.0086602535381956,  0.0000000000000000,  0.0050000008654169 ]
  forces:
  - [  -0.0002569600000000, -0.0007380900000000, -0.0013507700000000 ]
  - [   0.0029801900000000,  0.0000235600000000,  0.0017602000000000 ]
  - [  -0.0012991800000000,  0.0007412200000000,  0.0004617600000000 ]
  - [   0.0051323400000000, -0.0030095400000000,  0.0054200800000000 ]
  - [   0.0075037500000000,  0.0031940500000000,  0.0017203200000000 ]
  - [  -0.0020762900000000, -0.0000053300000000, -0.0011890300000000 ]
  - [   0.0007915200000000,  0.0000019700000000,  0.0004572900000000 ]
  - [  -0.0000904100000000, -0.0009696800000000, -0.0007549200000000 ]
  - [  -0.0007047300000000,  0.0009688600000000,  0.0003061700000000 ]
  - [   0.0072593500000000,  0.0030079200000000,  0.0017354100000000 ]
  - [   0.0052464600000000, -0.0031964700000000,  0.0056370200000000 ]
  - [  -0.0020704000000000,  0.0000031000000000, -0.0012014200000000 ]
  - [   0.0030122200000000, -0.0000247600000000,  0.0017003200000000 ]
  - [  -0.0002498500000000, -0.0007416500000000, -0.0013568500000000 ]
  - [  -0.0012989300000000,  0.0007390700000000,  0.0004557200000000 ]
  - [  -0.0000918200000000, -0.0009668900000000, -0.0007604600000000 ]
  - [   0.0007966400000000, -0.0000023000000000,  0.0004586700000000 ]
  - [  -0.0007050600000000,  0.0009704700000000,  0.0003009300000000 ]
  - [   0.0007909700000000,  0.0000005800000000,  0.0004600800000000 ]
  - [   0.0001631400000000, -0.0002553100000000, -0.0011966800000000 ]
  - [  -0.0009533200000000,  0.0002544700000000,  0.0007372100000000 ]
  - [   0.0001614800000000, -0.0002555600000000, -0.0011951300000000 ]
  - [   0.0007951300000000, -0.0000003100000000,  0.0004554900000000 ]
  - [  -0.0009583200000000,  0.0002555900000000,  0.0007365300000000 ]
  - [   0.0005192700000000,  0.0000014000000000,  0.0002986300000000 ]
  - [   0.0005263200000000, -0.0000003000000000,  0.0002999300000000 ]
  - [  -0.0010456000000000,  0.0000016600000000, -0.0006065100000000 ]
  - [  -0.0374762100000000, -0.0000002900000000, -0.0216351500000000 ]
  - [   0.0035401600000000,  0.0000002900000000,  0.0020444600000000 ]
  - [   0.0035262200000000,  0.0000016800000000,  0.0020316300000000 ]
  - [  -0.0006466900000000,  0.0021091300000000,  0.0010064200000000 ]
  - [   0.0007842100000000,  0.0000015000000000,  0.0004496900000000 ]
  - [   0.0005534000000000, -0.0021051500000000, -0.0010599700000000 ]
  - [  -0.0006405500000000,  0.0021056900000000,  0.0010057000000000 ]
  - [   0.0005486000000000, -0.0021101600000000, -0.0010631900000000 ]
  - [   0.0007871500000000, -0.0000006000000000,  0.0004512200000000 ]
  - [  -0.0012443600000000,  0.0004219500000000,  0.0020376900000000 ]
  - [   0.0007824300000000, -0.0000000600000000,  0.0004567200000000 ]
  - [   0.0011502100000000, -0.0004218500000000, -0.0020886100000000 ]
  - [  -0.0003173500000000,  0.0003879200000000,  0.0004541600000000 ]
  - [   0.0002343100000000, -0.0003890100000000, -0.0004995100000000 ]
  - [   0.0001124700000000, -0.0000041500000000,  0.0000590300000000 ]
  - [  -0.0018373200000000,  0.0000040400000000, -0.0010622100000000 ]
  - [   0.0012680000000000, -0.0016399000000000,  0.0020723200000000 ]
  - [   0.0024179700000000,  0.0016316800000000,  0.0000650800000000 ]
  - [  -0.0012367200000000,  0.0004225200000000,  0.0020375100000000 ]
  - [   0.0011442300000000, -0.0004221000000000, -0.0020920000000000 ]
  - [   0.0007888400000000,  0.0000003100000000,  0.0004508700000000 ]
  - [  -0.0018392700000000, -0.0000033400000000, -0.0010553300000000 ]
  - [   0.0024301700000000,  0.0016390800000000,  0.0000642600000000 ]
  - [   0.0012639700000000, -0.0016314600000000,  0.0020599700000000 ]
  - [  -0.0003162700000000,  0.0003893600000000,  0.0004529800000000 ]
  - [   0.0001080000000000,  0.0000032700000000,  0.0000671700000000 ]
  - [   0.0002364600000000, -0.0003878900000000, -0.0005014300000000 ]
