phonopy:
  version: "2.45.1"
  frequency_unit_conversion_factor: 15.633302
  symmetry_tolerance: 1.00000e-05

space_group:
  type: "Fm-3m"
  number: 225
  Hall_symbol: "-F 4 2 3"

primitive_matrix:
- [ -1.000000000000000,  0.000000000000000,  0.000000000000000 ]
- [  1.000000000000000,  1.000000000000000,  1.000000000000000 ]
- [  0.000000000000000, -0.000000000000000, -1.000000000000000 ]

supercell_matrix:
- [   3,   0,   0 ]
- [   0,   3,   0 ]
- [   0,   0,   3 ]

primitive_cell:
  lattice:
  - [    -2.452528280284181,     3.468398067019097,    -0.000000000000000 ] # a
  - [     1.226263643497896,     3.468398067019097,     2.123951997649214 ] # b
  - [     1.226263633565012,     3.468398057086213,    -2.123949961408018 ] # c
  points:
  - symbol: Sr # 1
    coordinates: [  0.000000000000000,  0.000000000000000,  0.000000000000000 ]
    mass: 87.620000
  - symbol: S # 2
    coordinates: [  0.500000000000000,  0.500000000000000,  0.500000000000000 ]
    mass: 32.065000
  reciprocal_lattice: # without 2pi
  - [    -0.271828366917975,     0.096105820701453,     0.000000000410893 ] # a*
  - [     0.135914118502840,     0.096105813945570,     0.235410328989163 ] # b*
  - [     0.135914248804369,     0.096105906082683,    -0.235410330074230 ] # c*

unit_cell:
  lattice:
  - [     3.678791923782077,     0.000000000000000,     2.123951997649214 ] # a
  - [     1.226263643497896,     3.468398067019097,     2.123951997649214 ] # b
  - [     0.000000009932884,     0.000000009932884,     4.247901959057232 ] # c
  points:
  - symbol: Sr # 1
    coordinates: [  0.000000000000000,  0.000000000000000,  0.000000000000000 ]
    mass: 87.620000
    reduced_to: 1
  - symbol: S # 2
    coordinates: [  0.500000000000000,  0.500000000000000,  0.500000000000000 ]
    mass: 32.065000
    reduced_to: 2

supercell:
  lattice:
  - [    11.036375771346231,     0.000000000000000,     6.371855992947641 ] # a
  - [     3.678790930493688,    10.405194201057292,     6.371855992947641 ] # b
  - [     0.000000029798652,     0.000000029798652,    12.743705877171696 ] # c
  points:
  - symbol: Sr # 1
    coordinates: [  0.000000000000000,  0.000000000000000,  0.000000000000000 ]
    mass: 87.620000
    reduced_to: 1
  - symbol: Sr # 2
    coordinates: [  0.333333333333333,  0.000000000000000,  0.000000000000000 ]
    mass: 87.620000
    reduced_to: 1
  - symbol: Sr # 3
    coordinates: [  0.666666666666667,  0.000000000000000,  0.000000000000000 ]
    mass: 87.620000
    reduced_to: 1
  - symbol: Sr # 4
    coordinates: [  0.000000000000000,  0.333333333333333,  0.000000000000000 ]
    mass: 87.620000
    reduced_to: 1
  - symbol: Sr # 5
    coordinates: [  0.333333333333333,  0.333333333333333,  0.000000000000000 ]
    mass: 87.620000
    reduced_to: 1
  - symbol: Sr # 6
    coordinates: [  0.666666666666667,  0.333333333333333,  0.000000000000000 ]
    mass: 87.620000
    reduced_to: 1
  - symbol: Sr # 7
    coordinates: [  0.000000000000000,  0.666666666666667,  0.000000000000000 ]
    mass: 87.620000
    reduced_to: 1
  - symbol: Sr # 8
    coordinates: [  0.333333333333333,  0.666666666666667,  0.000000000000000 ]
    mass: 87.620000
    reduced_to: 1
  - symbol: Sr # 9
    coordinates: [  0.666666666666667,  0.666666666666667,  0.000000000000000 ]
    mass: 87.620000
    reduced_to: 1
  - symbol: Sr # 10
    coordinates: [  0.000000000000000,  0.000000000000000,  0.333333333333333 ]
    mass: 87.620000
    reduced_to: 1
  - symbol: Sr # 11
    coordinates: [  0.333333333333333,  0.000000000000000,  0.333333333333333 ]
    mass: 87.620000
    reduced_to: 1
  - symbol: Sr # 12
    coordinates: [  0.666666666666667,  0.000000000000000,  0.333333333333333 ]
    mass: 87.620000
    reduced_to: 1
  - symbol: Sr # 13
    coordinates: [  0.000000000000000,  0.333333333333333,  0.333333333333333 ]
    mass: 87.620000
    reduced_to: 1
  - symbol: Sr # 14
    coordinates: [  0.333333333333333,  0.333333333333333,  0.333333333333333 ]
    mass: 87.620000
    reduced_to: 1
  - symbol: Sr # 15
    coordinates: [  0.666666666666667,  0.333333333333333,  0.333333333333333 ]
    mass: 87.620000
    reduced_to: 1
  - symbol: Sr # 16
    coordinates: [  0.000000000000000,  0.666666666666667,  0.333333333333333 ]
    mass: 87.620000
    reduced_to: 1
  - symbol: Sr # 17
    coordinates: [  0.333333333333333,  0.666666666666667,  0.333333333333333 ]
    mass: 87.620000
    reduced_to: 1
  - symbol: Sr # 18
    coordinates: [  0.666666666666667,  0.666666666666667,  0.333333333333333 ]
    mass: 87.620000
    reduced_to: 1
  - symbol: Sr # 19
    coordinates: [  0.000000000000000,  0.000000000000000,  0.666666666666667 ]
    mass: 87.620000
    reduced_to: 1
  - symbol: Sr # 20
    coordinates: [  0.333333333333333,  0.000000000000000,  0.666666666666667 ]
    mass: 87.620000
    reduced_to: 1
  - symbol: Sr # 21
    coordinates: [  0.666666666666667,  0.000000000000000,  0.666666666666667 ]
    mass: 87.620000
    reduced_to: 1
  - symbol: Sr # 22
    coordinates: [  0.000000000000000,  0.333333333333333,  0.666666666666667 ]
    mass: 87.620000
    reduced_to: 1
  - symbol: Sr # 23
    coordinates: [  0.333333333333333,  0.333333333333333,  0.666666666666667 ]
    mass: 87.620000
    reduced_to: 1
  - symbol: Sr # 24
    coordinates: [  0.666666666666667,  0.333333333333333,  0.666666666666667 ]
    mass: 87.620000
    reduced_to: 1
  - symbol: Sr # 25
    coordinates: [  0.000000000000000,  0.666666666666667,  0.666666666666667 ]
    mass: 87.620000
    reduced_to: 1
  - symbol: Sr # 26
    coordinates: [  0.333333333333333,  0.666666666666667,  0.666666666666667 ]
    mass: 87.620000
    reduced_to: 1
  - symbol: Sr # 27
    coordinates: [  0.666666666666667,  0.666666666666667,  0.666666666666667 ]
    mass: 87.620000
    reduced_to: 1
  - symbol: S # 28
    coordinates: [  0.166666666666667,  0.166666666666667,  0.166666666666667 ]
    mass: 32.065000
    reduced_to: 28
  - symbol: S # 29
    coordinates: [  0.500000000000000,  0.166666666666667,  0.166666666666667 ]
    mass: 32.065000
    reduced_to: 28
  - symbol: S # 30
    coordinates: [  0.833333333333333,  0.166666666666667,  0.166666666666667 ]
    mass: 32.065000
    reduced_to: 28
  - symbol: S # 31
    coordinates: [  0.166666666666667,  0.500000000000000,  0.166666666666667 ]
    mass: 32.065000
    reduced_to: 28
  - symbol: S # 32
    coordinates: [  0.500000000000000,  0.500000000000000,  0.166666666666667 ]
    mass: 32.065000
    reduced_to: 28
  - symbol: S # 33
    coordinates: [  0.833333333333333,  0.500000000000000,  0.166666666666667 ]
    mass: 32.065000
    reduced_to: 28
  - symbol: S # 34
    coordinates: [  0.166666666666667,  0.833333333333333,  0.166666666666667 ]
    mass: 32.065000
    reduced_to: 28
  - symbol: S # 35
    coordinates: [  0.500000000000000,  0.833333333333333,  0.166666666666667 ]
    mass: 32.065000
    reduced_to: 28
  - symbol: S # 36
    coordinates: [  0.833333333333333,  0.833333333333333,  0.166666666666667 ]
    mass: 32.065000
    reduced_to: 28
  - symbol: S # 37
    coordinates: [  0.166666666666667,  0.166666666666667,  0.500000000000000 ]
    mass: 32.065000
    reduced_to: 28
  - symbol: S # 38
    coordinates: [  0.500000000000000,  0.166666666666667,  0.500000000000000 ]
    mass: 32.065000
    reduced_to: 28
  - symbol: S # 39
    coordinates: [  0.833333333333333,  0.166666666666667,  0.500000000000000 ]
    mass: 32.065000
    reduced_to: 28
  - symbol: S # 40
    coordinates: [  0.166666666666667,  0.500000000000000,  0.500000000000000 ]
    mass: 32.065000
    reduced_to: 28
  - symbol: S # 41
    coordinates: [  0.500000000000000,  0.500000000000000,  0.500000000000000 ]
    mass: 32.065000
    reduced_to: 28
  - symbol: S # 42
    coordinates: [  0.833333333333333,  0.500000000000000,  0.500000000000000 ]
    mass: 32.065000
    reduced_to: 28
  - symbol: S # 43
    coordinates: [  0.166666666666667,  0.833333333333333,  0.500000000000000 ]
    mass: 32.065000
    reduced_to: 28
  - symbol: S # 44
    coordinates: [  0.500000000000000,  0.833333333333333,  0.500000000000000 ]
    mass: 32.065000
    reduced_to: 28
  - symbol: S # 45
    coordinates: [  0.833333333333333,  0.833333333333333,  0.500000000000000 ]
    mass: 32.065000
    reduced_to: 28
  - symbol: S # 46
    coordinates: [  0.166666666666667,  0.166666666666667,  0.833333333333333 ]
    mass: 32.065000
    reduced_to: 28
  - symbol: S # 47
    coordinates: [  0.500000000000000,  0.166666666666667,  0.833333333333333 ]
    mass: 32.065000
    reduced_to: 28
  - symbol: S # 48
    coordinates: [  0.833333333333333,  0.166666666666667,  0.833333333333333 ]
    mass: 32.065000
    reduced_to: 28
  - symbol: S # 49
    coordinates: [  0.166666666666667,  0.500000000000000,  0.833333333333333 ]
    mass: 32.065000
    reduced_to: 28
  - symbol: S # 50
    coordinates: [  0.500000000000000,  0.500000000000000,  0.833333333333333 ]
    mass: 32.065000
    reduced_to: 28
  - symbol: S # 51
    coordinates: [  0.833333333333333,  0.500000000000000,  0.833333333333333 ]
    mass: 32.065000
    reduced_to: 28
  - symbol: S # 52
    coordinates: [  0.166666666666667,  0.833333333333333,  0.833333333333333 ]
    mass: 32.065000
    reduced_to: 28
  - symbol: S # 53
    coordinates: [  0.500000000000000,  0.833333333333333,  0.833333333333333 ]
    mass: 32.065000
    reduced_to: 28
  - symbol: S # 54
    coordinates: [  0.833333333333333,  0.833333333333333,  0.833333333333333 ]
    mass: 32.065000
    reduced_to: 28

displacements:
- atom:    1
  displacement:
    [   0.0086602535381956,  0.0000000000000000,  0.0050000008654169 ]
  forces:
  - [  -0.0434208400000000,  0.0000006800000000, -0.0250691700000000 ]
  - [   0.0061614300000000, -0.0000000400000000,  0.0035572400000000 ]
  - [   0.0060593900000000,  0.0000003900000000,  0.0034986300000000 ]
  - [  -0.0009558100000000,  0.0033106000000000,  0.0022174800000000 ]
  - [   0.0006609000000000,  0.0000003300000000,  0.0003816400000000 ]
  - [   0.0014425600000000, -0.0032927800000000, -0.0019296600000000 ]
  - [  -0.0009492200000000,  0.0032903900000000,  0.0022110900000000 ]
  - [   0.0014445400000000, -0.0033112600000000, -0.0019380600000000 ]
  - [   0.0006612800000000, -0.0000013500000000,  0.0003811200000000 ]
  - [  -0.0017160900000000,  0.0011569800000000,  0.0035351200000000 ]
  - [   0.0006592300000000, -0.0000003800000000,  0.0003815500000000 ]
  - [   0.0021957800000000, -0.0011564600000000, -0.0032361800000000 ]
  - [  -0.0004387300000000,  0.0003877600000000,  0.0003809100000000 ]
  - [   0.0001116200000000, -0.0003890100000000, -0.0005690300000000 ]
  - [   0.0003108600000000, -0.0000036100000000,  0.0001755400000000 ]
  - [  -0.0033453600000000,  0.0000052700000000, -0.0019355700000000 ]
  - [   0.0013127300000000, -0.0014221700000000,  0.0019195600000000 ]
  - [   0.0023108800000000,  0.0014148800000000,  0.0001787700000000 ]
  - [  -0.0017045700000000,  0.0011562800000000,  0.0035172300000000 ]
  - [   0.0022044200000000, -0.0011575300000000, -0.0032550400000000 ]
  - [   0.0006609600000000, -0.0000001100000000,  0.0003801000000000 ]
  - [  -0.0033492800000000, -0.0000056000000000, -0.0019288800000000 ]
  - [   0.0023181400000000,  0.0014215300000000,  0.0001769800000000 ]
  - [   0.0013109800000000, -0.0014164700000000,  0.0019138000000000 ]
  - [  -0.0004371900000000,  0.0003875500000000,  0.0003807700000000 ]
  - [   0.0003068400000000,  0.0000018100000000,  0.0001816600000000 ]
  - [   0.0001116900000000, -0.0003888500000000, -0.0005686800000000 ]
  - [  -0.0002477800000000, -0.0007368700000000, -0.0013456800000000 ]
  - [  -0.0012883500000000,  0.0007334200000000,  0.0004545200000000 ]
  - [   0.0028915500000000, -0.0000165800000000,  0.0016435900000000 ]
  - [   0.0007894100000000,  0.0000009200000000,  0.0004570700000000 ]
  - [  -0.0007017000000000,  0.0009615800000000,  0.0002993300000000 ]
  - [  -0.0000899100000000, -0.0009568100000000, -0.0007545500000000 ]
  - [   0.0056096700000000, -0.0038838500000000,  0.0064123400000000 ]
  - [  -0.0020545000000000,  0.0000031700000000, -0.0011886000000000 ]
  - [   0.0080604000000000,  0.0036520300000000,  0.0016737200000000 ]
  - [   0.0007901400000000,  0.0000003200000000,  0.0004581700000000 ]
  - [  -0.0009497500000000,  0.0002533200000000,  0.0007309700000000 ]
  - [   0.0001578200000000, -0.0002541900000000, -0.0011846000000000 ]
  - [   0.0005161900000000,  0.0000002600000000,  0.0002983500000000 ]
  - [  -0.0010340800000000, -0.0000000000000000, -0.0005975400000000 ]
  - [   0.0005183600000000, -0.0000004100000000,  0.0002991500000000 ]
  - [   0.0001585500000000, -0.0002530100000000, -0.0011863700000000 ]
  - [  -0.0009481600000000,  0.0002552100000000,  0.0007301300000000 ]
  - [   0.0007907100000000, -0.0000000200000000,  0.0004557400000000 ]
  - [   0.0083560500000000,  0.0038846400000000,  0.0016520000000000 ]
  - [  -0.0020554400000000, -0.0000031300000000, -0.0011850600000000 ]
  - [   0.0054776800000000, -0.0036507000000000,  0.0061412600000000 ]
  - [  -0.0000929000000000, -0.0009587100000000, -0.0007549900000000 ]
  - [  -0.0007008900000000,  0.0009594400000000,  0.0002962100000000 ]
  - [   0.0007919300000000, -0.0000004000000000,  0.0004571000000000 ]
  - [   0.0028684000000000,  0.0000168600000000,  0.0016825800000000 ]
  - [  -0.0012902800000000,  0.0007375900000000,  0.0004596800000000 ]
  - [  -0.0002503700000000, -0.0007331000000000, -0.0013433900000000 ]
- atom:   28
  displacement:
    [   0.0086602535381956,  0.0000000000000000,  0.0050000008654169 ]
  forces:
  - [  -0.0002529400000000, -0.0007324100000000, -0.0013421200000000 ]
  - [   0.0028613500000000,  0.0000255800000000,  0.0016948400000000 ]
  - [  -0.0012902800000000,  0.0007384000000000,  0.0004600900000000 ]
  - [   0.0054843700000000, -0.0036673500000000,  0.0061607000000000 ]
  - [   0.0083384900000000,  0.0038687400000000,  0.0016551100000000 ]
  - [  -0.0020551300000000, -0.0000069300000000, -0.0011851700000000 ]
  - [   0.0007903200000000,  0.0000001100000000,  0.0004577700000000 ]
  - [  -0.0000907300000000, -0.0009600700000000, -0.0007569600000000 ]
  - [  -0.0006986900000000,  0.0009571100000000,  0.0002991600000000 ]
  - [   0.0080789100000000,  0.0036676200000000,  0.0016683000000000 ]
  - [   0.0056019100000000, -0.0038694800000000,  0.0063935400000000 ]
  - [  -0.0020524400000000,  0.0000052800000000, -0.0011910700000000 ]
  - [   0.0028971400000000, -0.0000267200000000,  0.0016307300000000 ]
  - [  -0.0002465000000000, -0.0007391900000000, -0.0013480800000000 ]
  - [  -0.0012855400000000,  0.0007302600000000,  0.0004529100000000 ]
  - [  -0.0000915400000000, -0.0009574200000000, -0.0007560300000000 ]
  - [   0.0007917600000000, -0.0000009200000000,  0.0004552600000000 ]
  - [  -0.0006986100000000,  0.0009595000000000,  0.0002983600000000 ]
  - [   0.0007893600000000,  0.0000016100000000,  0.0004567700000000 ]
  - [   0.0001576200000000, -0.0002538000000000, -0.0011880900000000 ]
  - [  -0.0009476000000000,  0.0002546600000000,  0.0007294300000000 ]
  - [   0.0001564900000000, -0.0002548400000000, -0.0011858800000000 ]
  - [   0.0007913700000000, -0.0000019800000000,  0.0004550700000000 ]
  - [  -0.0009475400000000,  0.0002514500000000,  0.0007331600000000 ]
  - [   0.0005143100000000, -0.0000004200000000,  0.0002967900000000 ]
  - [   0.0005200100000000, -0.0000004700000000,  0.0003013600000000 ]
  - [  -0.0010334300000000, -0.0000007800000000, -0.0005960400000000 ]
  - [  -0.0397663400000000,  0.0000001300000000, -0.0229582700000000 ]
  - [   0.0034709400000000, -0.0000003500000000,  0.0020045000000000 ]
  - [   0.0034421700000000, -0.0000003600000000,  0.0019884000000000 ]
  - [  -0.0006449000000000,  0.0020736600000000,  0.0009843300000000 ]
  - [   0.0007719500000000,  0.0000045700000000,  0.0004494800000000 ]
  - [   0.0005319600000000, -0.0020627600000000, -0.0010458900000000 ]
  - [  -0.0006395800000000,  0.0020644000000000,  0.0009848400000000 ]
  - [   0.0005299000000000, -0.0020725400000000, -0.0010505900000000 ]
  - [   0.0007741700000000, -0.0000020700000000,  0.0004475800000000 ]
  - [  -0.0012299100000000,  0.0004161200000000,  0.0019999300000000 ]
  - [   0.0007725200000000,  0.0000005300000000,  0.0004496700000000 ]
  - [   0.0011135900000000, -0.0004163000000000, -0.0020536200000000 ]
  - [  -0.0003147400000000,  0.0003850900000000,  0.0004476500000000 ]
  - [   0.0002293000000000, -0.0003845900000000, -0.0004949200000000 ]
  - [   0.0001192300000000, -0.0000038400000000,  0.0000632100000000 ]
  - [  -0.0018139800000000,  0.0000020900000000, -0.0010473500000000 ]
  - [   0.0013223200000000, -0.0017087400000000,  0.0021604300000000 ]
  - [   0.0025178800000000,  0.0016977800000000,  0.0000671400000000 ]
  - [  -0.0012217200000000,  0.0004175000000000,  0.0019914200000000 ]
  - [   0.0011162300000000, -0.0004162400000000, -0.0020647400000000 ]
  - [   0.0007748700000000,  0.0000005000000000,  0.0004418300000000 ]
  - [  -0.0018163300000000, -0.0000011000000000, -0.0010470200000000 ]
  - [   0.0025294900000000,  0.0017118800000000,  0.0000631400000000 ]
  - [   0.0013186800000000, -0.0016975800000000,  0.0021474500000000 ]
  - [  -0.0003134200000000,  0.0003851800000000,  0.0004464100000000 ]
  - [   0.0001128600000000,  0.0000041500000000,  0.0000714200000000 ]
  - [   0.0002305500000000, -0.0003845500000000, -0.0004962800000000 ]
